,formula_pretty,efermi,formation_energy_per_atom,total_magnetization_normalized_formula_units,num_magnetic_sites,num_unique_magnetic_sites,k_voigt,k_reuss,g_voigt,g_reuss,g_vrh,e_total,e_ionic,e_electronic,n,e_ij_max,material_id,b
1936,Ce2Y2O7,3.5528261,-3.907941576666666,0.0002681,0,0,144.16102430131093,144.08093373344923,64.25269368243853,61.94182330114272,63.097258491790626,157.1722217616333,111.62594379799084,45.54627796364244,2.847231474929164,1.412970332273232,mp-36699,36699
1937,LuCl3,-2.48362066,-2.6577483174999994,1.535e-05,0,0,9.101466959117346,0.8632893352176034,5.338960494262895,0.4354447002703108,2.8872025972666027,157.1722217616333,111.62594379799084,45.54627796364244,2.847231474929164,1.412970332273232,mp-865324,865324
1938,HoF3,-0.59322159,-4.465273261875,8.75e-07,0,0,89.39952791577235,41.5365782652878,51.69804715924717,28.161230799221162,39.92963897923416,157.1722217616333,111.62594379799084,45.54627796364244,2.847231474929164,1.412970332273232,mp-561877,561877
1939,MgCu4Sn,6.91174387,-0.1262149741666665,0.0002656,0,0,100.27380717773744,100.27380717773745,55.483152972663696,54.600609335989844,55.041881154326774,157.1722217616333,111.62594379799084,45.54627796364244,2.847231474929164,1.412970332273232,mp-3676,3676
1940,SnMo3,9.50363574,0.05191669625000017,0.00052115,0,0,216.8115181437388,216.8115181437388,103.54852963311163,98.41182039444611,100.98017501377888,157.1722217616333,111.62594379799084,45.54627796364244,2.847231474929164,1.412970332273232,mp-30788,30788
1941,YCuO2,2.44967986,-2.722433049166666,9.56e-05,0,0,118.32372117578605,111.19142775919417,42.96064604510986,26.9590118491822,34.95982894714603,11.76578615667323,6.89394400000656,4.871842156666667,2.2072249900421723,1.412970332273232,mp-6972,6972
1942,CsMgF3,-0.69112346,-3.426002267086207,1.74e-05,0,0,63.62875734840949,63.62875734840951,38.319955114640074,33.9443174677367,36.13213629118839,157.1722217616333,111.62594379799084,45.54627796364244,2.847231474929164,1.412970332273232,mp-8401,8401
1943,MoCl3,2.36465368,-1.2892357637499998,1.999771,2,1,20.430233355948534,4.302064159741958,11.653243718433714,0.9559970766658829,6.304620397549798,157.1722217616333,111.62594379799084,45.54627796364244,2.847231474929164,1.412970332273232,mp-22853,22853
1944,VPbO3,4.30616936,-2.1146165890000015,6e-07,2,1,67.984704050051,40.82699048505366,43.58704293866659,32.574370456988355,38.08070669782747,18.17127831333333,12.180470616666668,5.990807696666667,2.4476126524976674,2.7481287096859197,mp-20032,20032
1945,BaSb2Pd,5.39694928,-0.9061895562500002,8.3e-06,0,0,55.184091293956044,54.15020882307858,23.846426722617295,23.527065808605922,23.68674626561161,157.1722217616333,111.62594379799084,45.54627796364244,2.847231474929164,1.412970332273232,mp-9768,9768
1946,LiCuO2,2.30504464,-1.4505814108333328,8e-07,0,0,95.75807417523579,66.05700408838544,49.451277948933466,30.76611160743179,40.108694778182624,17.009444273364362,8.790515750031027,8.218928523333334,2.8668673710748,1.412970332273232,mp-9158,9158
1947,Na2VO3,2.67218774,-2.241147226350575,0.9998794,2,1,92.57234055833183,90.5182776751393,62.332344358294144,56.83399863864652,59.583171498470335,157.1722217616333,111.62594379799084,45.54627796364244,2.847231474929164,1.412970332273232,mp-759863,759863
1948,SrAgO2,2.08679178,-1.8187307745833334,0.00015965,0,0,93.10299823877402,66.85265153853777,45.83036624024269,29.44710697620048,37.638736608221585,157.1722217616333,111.62594379799084,45.54627796364244,2.847231474929164,1.412970332273232,mp-997100,997100
1949,Cs2PtF6,-0.82992969,-2.45156311454023,0.0001413,0,0,20.35214594405649,19.035010516807056,10.094755988915425,7.707496229806412,8.901126109360918,157.1722217616333,111.62594379799084,45.54627796364244,2.847231474929164,1.412970332273232,mp-8191,8191
1950,YMgAg2,3.56072176,-0.31703167,0.0011234,0,0,62.97164651320515,62.97164651320514,14.07719623887331,13.45178468817326,13.764490463523284,157.1722217616333,111.62594379799084,45.54627796364244,2.847231474929164,1.412970332273232,mp-866162,866162
1951,Rb2CoF6,-3.15846546,-2.486047620555555,5.0054333,7,2,16.475338441010233,16.47533844101023,7.547373404862214,7.54093264102971,7.544153022945962,7.017691589701077,4.636743739701116,2.3809478499999623,1.5430320314238335,1.412970332273232,mp-560878,560878
1952,K2CoF4,0.97366859,-2.6317489687142848,2.999967,1,1,47.1655669764581,47.142363599736136,-1.585338630634603,26.52377413232969,12.469217750847545,157.1722217616333,111.62594379799084,45.54627796364244,2.847231474929164,1.412970332273232,mp-556447,556447
1953,In5Se5Br,4.04779677,-0.7895245067471589,0.0010126,0,0,27.972827326179683,26.45310333308101,14.48084016616316,13.165171513320173,13.823005839741667,33.23145351,22.6909653,10.54048821,3.246611804635719,0.996651342747302,mp-510346,510346
1954,SF6,-4.32617237,-2.1053871268750006,4.89e-05,0,0,5.932228692571952,5.932228692571953,2.993006308205938,1.135005188064141,2.0640057481350396,2.1475287900103286,0.4331109166745213,1.7144178733358075,1.3093578095141938,1.412970332273232,mp-8560,8560
1955,Ti3SnC2,8.41313464,-0.7820459450000001,8.03e-05,0,0,158.72043606522058,157.8063525220056,112.11613740132309,111.4873550712435,111.8017462362833,157.1722217616333,111.62594379799084,45.54627796364244,2.847231474929164,1.412970332273232,mp-21023,21023
1956,Ti2N,6.83610996,-1.423146505555555,0.00048065,0,0,181.39334054661265,176.6231533322475,106.49077310482618,101.6811921110087,104.08598260791743,157.1722217616333,111.62594379799084,45.54627796364244,2.847231474929164,1.412970332273232,mp-7790,7790
1957,Si3W,9.86509095,0.45380836,1.315e-05,0,0,145.3540433164907,144.41461527520048,-92.92934542873928,18.242860262456844,-37.34324258314122,157.1722217616333,111.62594379799084,45.54627796364244,2.847231474929164,1.412970332273232,mp-972748,972748
1958,Pd4Se,4.49321604,-0.2547171774687499,9.195e-05,0,0,139.13392622832362,138.920666591305,37.773215507287524,36.36363978653829,37.06842764691291,157.1722217616333,111.62594379799084,45.54627796364244,2.847231474929164,1.412970332273232,mp-7818,7818
1959,Sc3In,5.18435098,-0.2954346799999996,1.55879495,6,1,63.46485323551033,63.4574033635706,39.475902862292315,39.25223534531007,39.36406910380119,157.1722217616333,111.62594379799084,45.54627796364244,2.847231474929164,1.412970332273232,mp-19713,19713
1960,LiSc2Pt,4.80097118,-0.7343595883333336,0.0042714,0,0,90.82495351212012,90.8249535121201,36.68344805111016,35.90641290666244,36.2949304788863,157.1722217616333,111.62594379799084,45.54627796364244,2.847231474929164,1.412970332273232,mp-865444,865444
1961,ZnF2,-1.67782382,-2.5972805958333334,2.025e-05,0,0,96.19725378226991,95.5927160923848,32.2316168575369,30.243751635726518,31.23768424663171,8.37578308,5.82240845,2.55337463,1.5979282305535503,1.412970332273232,mp-7709,7709
1962,CeC2,7.09884809,-0.16063979166666562,0.0007407,0,0,103.92334848179001,98.01325514419443,55.83588606533441,11.319254441572637,33.57757025345352,157.1722217616333,111.62594379799084,45.54627796364244,2.847231474929164,1.412970332273232,mp-2839,2839
1963,MnSnAu,5.52548017,-0.045422914310344474,4.0516295,1,1,80.0316048744173,80.03160487441727,23.10888171200945,17.149788592161936,20.129335152085694,157.1722217616333,111.62594379799084,45.54627796364244,2.847231474929164,1.412970332273232,mp-22027,22027
1964,PbWO4,3.09963899,-1.9930109341666669,1.5e-07,0,0,84.11216278530398,77.01001904959689,36.239656740639454,24.02249692292407,30.131076831781762,157.1722217616333,111.62594379799084,45.54627796364244,2.847231474929164,1.412970332273232,mp-641365,641365
1965,ZrO2,2.32758273,-3.7911989341666654,2.325e-06,0,0,151.60383786569565,151.5219843462474,80.6230490290386,73.06449306884251,76.84377104894055,157.1722217616333,111.62594379799084,45.54627796364244,2.847231474929164,1.412970332273232,mp-755089,755089
1966,SiPd3,5.9769416,-0.6067529137499994,1.8975e-05,0,0,161.7347811620592,159.92945297626844,47.501357566373024,40.896980520108166,44.199169043240595,157.1722217616333,111.62594379799084,45.54627796364244,2.847231474929164,1.412970332273232,mp-20622,20622
1967,HfMnRh2,6.13915159,-0.6572043794827582,4.7874994,3,2,177.35619183307932,177.3561918330793,71.73160448188196,65.02392746016946,68.37776597102571,157.1722217616333,111.62594379799084,45.54627796364244,2.847231474929164,1.412970332273232,mp-865091,865091
1968,BaCO3,0.49939091,-2.607796669999999,5.14e-05,0,0,50.51257798501006,49.76813523323214,18.116110712251178,10.696469003374299,14.406289857812737,13.923362286666665,11.237654103333332,2.685708183333333,1.6388130409944062,1.6528999999999996,mp-675324,675324
1969,NbGaO4,0.66961603,-2.7242927654166658,0.00012,0,0,163.6957769219746,162.98622822715419,61.14313887394922,57.85315700955415,59.49814794175168,16.379024520000005,11.755445186666668,4.623579333333335,2.1502509931013485,1.412970332273232,mp-7601,7601
1970,LiNiF3,-0.48133952,-2.6478378621666665,0.0,2,2,80.98880930023894,80.70256544479237,39.14250315988828,37.923221207404495,38.53286218364639,7.380085481541339,5.071781067263402,2.3083044142779365,1.5193105062092924,1.412970332273232,mp-758501,758501
1971,MnV3,6.1730921,-0.14656493948275795,0.0049736,0,0,209.28462838613572,209.2846283861357,59.11923534077048,49.68810698947907,54.40367116512478,157.1722217616333,111.62594379799084,45.54627796364244,2.847231474929164,1.412970332273232,mp-864984,864984
1972,BaCu3O4,2.77377399,-1.4566490450000007,0.7229094,3,2,94.76502411517295,55.131267213839685,36.902571125409686,25.200390128747195,31.05148062707844,157.1722217616333,111.62594379799084,45.54627796364244,2.847231474929164,1.412970332273232,mp-3988,3988
1973,BeVRu2,6.71215883,-0.35140093624999924,0.0026166,0,0,237.96238624149262,237.96238624149265,86.55463699946,86.21697482152312,86.38580591049157,157.1722217616333,111.62594379799084,45.54627796364244,2.847231474929164,1.412970332273232,mp-867874,867874
1974,SbPt,8.38533475,-0.5115465774999999,0.0005052,0,0,125.18518857829824,123.79131768200124,31.654233368817856,28.533761911465923,30.09399764014189,157.1722217616333,111.62594379799084,45.54627796364244,2.847231474929164,1.412970332273232,mp-2845,2845
1975,B2S3,1.31799647,-0.6305787145416666,0.0087321,0,0,38.87916143216843,1.4291518328498278,30.38062348074965,0.8757118369848735,15.628167658867262,157.1722217616333,111.62594379799084,45.54627796364244,2.847231474929164,1.412970332273232,mp-866066,866066
1976,GaNi2,6.66577232,-0.32691929416666693,0.00117045,0,0,164.64624528026192,163.8262322736907,61.36885177705312,46.516495791025534,53.94267378403933,157.1722217616333,111.62594379799084,45.54627796364244,2.847231474929164,1.412970332273232,mp-570904,570904
1977,EuTe,4.64706561,-1.8918302324999994,6.999297,1,1,33.341982454129194,33.341982454129194,25.26983931718659,20.561289871613155,22.915564594399875,157.1722217616333,111.62594379799084,45.54627796364244,2.847231474929164,1.412970332273232,mp-542583,542583
1978,CuBr,2.54810544,-0.5148605662499999,6e-07,0,0,9.509711214696686,2.881924747959233,7.750754816026429,3.32980991991,5.5402823679682145,11.569038583333331,6.76951615,4.799522433333332,2.190781238127927,1.412970332273232,mp-22917,22917
1979,ErI3,0.1847694,-1.6274201150000005,0.00075675,0,0,5.251425375670784,0.4024982822011873,3.31108603627484,0.23911868459864366,1.7751023604367417,157.1722217616333,111.62594379799084,45.54627796364244,2.847231474929164,1.412970332273232,mp-866003,866003
1980,Zn3N2,2.97459899,-0.021981282500000532,0.000251625,0,0,132.69904407323105,131.3976196080342,57.5632814064771,56.033053991280525,56.798167698878814,157.1722217616333,111.62594379799084,45.54627796364244,2.847231474929164,1.412970332273232,mp-754553,754553
1981,AlI3,-0.33623122,-0.955214190625,0.00225485,0,0,0.9867005462399834,0.5044743923250837,0.8290685664465954,0.6615991024096385,0.745333834428117,3.725970436666667,0.8912697166666668,2.8347007200000003,1.683656948431004,1.412970332273232,mp-30930,30930
1982,NbBr2O,1.14182749,-1.9748484149999994,0.00232975,0,0,23.126729508707683,-1.5199186169066254,17.177248071773167,7.472026493524316,12.324637282648741,9.872397289877483,4.552535074130628,5.319862215746856,2.306482650215877,3.700729478663845,mp-550070,550070
1983,CaCuSb,6.0599396,-0.7318202966666666,0.0003481,0,0,56.953006726870754,47.89623126921703,35.58605821303002,33.00301366927271,34.294535941151366,157.1722217616333,111.62594379799084,45.54627796364244,2.847231474929164,1.412970332273232,mp-5910,5910
1984,MnSbPt,6.68594314,-0.4281849759770111,4.0061055,1,1,110.4809664844111,110.48096648441111,30.922796197561585,27.360743850546186,29.141770024053884,157.1722217616333,111.62594379799084,45.54627796364244,2.847231474929164,1.412970332273232,mp-5676,5676
1985,ZrAl3,7.67981973,-0.4643413574999995,0.0146876,0,0,100.28727869222419,100.28727869222419,63.82676455489834,63.395506457451276,63.611135506174804,157.1722217616333,111.62594379799084,45.54627796364244,2.847231474929164,1.412970332273232,mp-569775,569775
1986,SnAu,6.88642866,-0.1842897524999998,6.2e-05,0,0,72.30098847376895,71.5370674406492,21.345771801093846,17.74408133164463,19.544926566369238,157.1722217616333,111.62594379799084,45.54627796364244,2.847231474929164,1.412970332273232,mp-1775,1775
1987,LiGaTe2,2.3152225,-0.8397132902083331,0.0004287,0,0,26.985296241389264,26.81206195622435,13.661262746728378,11.45731118448599,12.559286965607184,10.278402833334928,2.8049480000015934,7.473454833333332,2.733762029389781,0.04749232409005667,mp-5048,5048
1988,MoC,9.66294359,0.21304057000000043,2.7e-05,0,0,334.9131837706204,334.9131837706203,154.64369121336318,133.13954767061873,143.89161944199094,157.1722217616333,111.62594379799084,45.54627796364244,2.847231474929164,1.412970332273232,mp-2746,2746
1989,CoCO3,3.43145723,-1.6714624369999995,0.0003975,2,1,120.43655543130944,111.31244844536788,58.15885586698034,53.01367627932886,55.586266073154604,8.374848070001539,4.712267966668207,3.6625801033333336,1.9137868489811851,1.412970332273232,mp-21434,21434
1990,HfCo,5.50702346,-0.3985034425000009,0.9280355,1,1,152.86373803249614,152.86373803249612,56.040401457289335,56.000796865137445,56.02059916121339,157.1722217616333,111.62594379799084,45.54627796364244,2.847231474929164,1.412970332273232,mp-2027,2027
1991,CrGeTe3,4.65147706,-0.41950860000000034,3.0000692,2,1,22.549637827022714,4.613164530023776,15.529081975433254,3.1186965580227204,9.323889266727987,157.1722217616333,111.62594379799084,45.54627796364244,2.847231474929164,1.412970332273232,mp-541449,541449
1992,VP2,8.6158015,-0.6113376155555557,6.065e-05,0,0,153.43229172330655,150.89609286814382,127.2714046820307,121.6734363740922,124.47242052806146,157.1722217616333,111.62594379799084,45.54627796364244,2.847231474929164,1.412970332273232,mp-9923,9923
1993,Rb2CoF4,1.06048408,-2.605216795714285,2.9992237,1,1,40.45927699602257,40.126125113291884,-1.6135942977889972,22.232345716361017,10.30937570928601,157.1722217616333,111.62594379799084,45.54627796364244,2.847231474929164,1.412970332273232,mp-559959,559959
1994,Mn2NbAl,6.63607074,-0.25654126146551803,1.9980219,3,2,190.4323786333032,190.43237863330316,101.7801125559166,96.85504065637889,99.31757660614775,157.1722217616333,111.62594379799084,45.54627796364244,2.847231474929164,1.412970332273232,mp-865011,865011
1995,Yb(ZnP)2,3.80857559,-0.745239819333333,2.9e-06,0,0,71.18243144896545,70.08480057035273,49.99564694934682,47.80164584995234,48.89864639964958,157.1722217616333,111.62594379799084,45.54627796364244,2.847231474929164,1.412970332273232,mp-9582,9582
1996,SrY2O4,2.05962814,-3.711378947500001,6.25e-07,0,0,114.78277201264288,109.955436458705,63.54937161665819,61.63184319850385,62.59060740758102,157.1722217616333,111.62594379799084,45.54627796364244,2.847231474929164,1.412970332273232,mp-17275,17275
1997,TiNiO3,4.91982181,-2.596717666666666,0.0,4,1,179.6347477593917,175.35080322174053,83.13725080352702,81.42249874923505,82.27987477638104,20.367081129391455,14.543465072662604,5.823616056728851,2.413216951856764,1.412970332273232,mp-18732,18732
1998,YbTe,3.36513253,-1.8765704300000001,0.0007895,0,0,39.6874877546731,39.68748775467309,28.09353547195804,24.50120850112298,26.29737198654051,157.1722217616333,111.62594379799084,45.54627796364244,2.847231474929164,1.412970332273232,mp-1779,1779
1999,RbAlF4,-1.44887028,-3.6378372362499998,0.0008623,0,0,57.98518995211499,53.86709441760964,33.18114344863766,24.125617896404254,28.65338067252096,7.597341543333331,5.568684293333331,2.0286572499999993,1.4243093940573444,1.412970332273232,mp-5479,5479
2000,VB,7.54884625,-0.8471857795833335,0.0011365,0,0,272.9927365542297,272.2777483345324,234.94789911756752,229.37020809680445,232.15905360718597,157.1722217616333,111.62594379799084,45.54627796364244,2.847231474929164,1.412970332273232,mp-9973,9973
2001,NaCl,-0.7046017,-2.109608383275862,5.08e-05,0,0,22.590490142223533,22.590490142223533,14.508697233449267,14.040668599133046,14.274682916291155,6.530281850000002,4.042135079999993,2.4881467700000104,1.577386056106751,1.412970332273232,mp-22862,22862
2002,LiMg2Ga,3.10992013,-0.17574785520833336,0.0005154,0,0,41.56055788860917,41.560557888609175,26.198966072194285,14.982515604721547,20.590740838457915,157.1722217616333,111.62594379799084,45.54627796364244,2.847231474929164,1.412970332273232,mp-30648,30648
2003,Li2ZrN2,4.84698362,-1.260916647333334,5.3e-06,0,0,136.75039663155448,127.58740693721859,116.58243792881022,110.07608767569538,113.3292628022528,45.28750212610857,37.608682616108574,7.678819509999999,2.7710682976065386,1.412970332273232,mp-3216,3216
2004,MgCuSb,6.52196048,-0.3356988333333331,8.2e-06,0,0,67.61028836472525,67.61028836472524,37.30750510259539,36.18820878573151,36.74785694416345,157.1722217616333,111.62594379799084,45.54627796364244,2.847231474929164,1.412970332273232,mp-3522,3522
2005,CoPdO2,4.65256402,-0.81176092875,3.0860044,2,2,166.5735812468302,139.17368072438018,51.067063686605564,21.722384416554895,36.394724051580226,157.1722217616333,111.62594379799084,45.54627796364244,2.847231474929164,1.412970332273232,mp-18919,18919
2006,FeSe,4.07885725,-0.5079131286718743,3.455e-05,0,0,29.56664735221984,9.078682477021388,23.344717136029384,2.9432441517328045,13.143980643881095,157.1722217616333,111.62594379799084,45.54627796364244,2.847231474929164,1.412970332273232,mp-20311,20311
2007,PrRhO3,4.86477242,-2.474184888000001,0.0002926,0,0,178.64143056963678,176.15277599583607,66.97822212911007,56.56322823765627,61.77072518338316,157.1722217616333,111.62594379799084,45.54627796364244,2.847231474929164,1.412970332273232,mp-4789,4789
2008,Al2ZnTe4,3.5591303,-0.7049408199999999,0.0036892,0,0,29.380947093103252,29.303926503638063,20.19488804337618,17.82090174734724,19.00789489536171,10.852307156670932,2.5804951833375966,8.271811973333334,2.8760757940870287,0.0606871759936673,mp-7908,7908
2009,Nb3SBr7,1.85221198,-1.3851965496022733,0.0002446,0,0,22.038899507086576,2.997812484799875,15.621556801192083,2.0805843383561142,8.851070569774098,7.806762649474745,1.7028769161414108,6.103885733333333,2.470604325531171,0.1625529863261202,mp-29057,29057
2010,Ba(CdP)2,2.93286921,-0.5809104713333337,0.0032533,0,0,50.79155770917988,50.72454850674923,32.50997484992698,31.839378701800253,32.17467677586362,24.388376983341193,11.441722203341198,12.946654779999998,3.598146019827433,1.412970332273232,mp-8279,8279
2011,FeSn,7.71349434,-0.0027313125000011005,1.8956895999999999,3,1,100.27321956995759,99.56808142519617,54.92463780071595,52.85561807266473,53.89012793669034,157.1722217616333,111.62594379799084,45.54627796364244,2.847231474929164,1.412970332273232,mp-21260,21260
2012,Rb(CoSe)2,3.81952937,-0.6563672104375001,2.2785787,2,1,39.55089451303237,37.1276578678667,26.12110661578173,24.178643648012702,25.14987513189722,157.1722217616333,111.62594379799084,45.54627796364244,2.847231474929164,1.412970332273232,mp-570091,570091
2013,Sc2TlAg,5.45947808,-0.3029024825000004,0.0044544,0,0,71.8043583198786,71.80435831986107,34.20513110838887,27.922300356118757,31.06371573225381,157.1722217616333,111.62594379799084,45.54627796364244,2.847231474929164,1.412970332273232,mp-862366,862366