,formula_pretty,efermi,formation_energy_per_atom,total_magnetization_normalized_formula_units,num_magnetic_sites,num_unique_magnetic_sites,k_voigt,k_reuss,g_voigt,g_reuss,g_vrh,e_total,e_ionic,e_electronic,n,e_ij_max,material_id,b
2553,HfCoAs,7.19068733,-0.8159888541666666,6.55e-06,0,0,181.41581468478446,181.20631815659138,92.9076702732227,90.93931722401139,91.92349374861705,157.1722217616333,111.62594379799084,45.54627796364244,2.847231474929164,1.412970332273232,mp-9801,9801
2554,VOF,1.94032384,-2.775679600833333,2.0035791,2,1,65.29356303498099,13.559889361742949,32.880403154968405,3.079069439229297,17.979736297098853,157.1722217616333,111.62594379799084,45.54627796364244,2.847231474929164,1.412970332273232,mp-859783,859783
2555,AgI,1.39863841,-0.47051333583333355,0.0006891,0,0,26.770281638654737,26.770281638654748,7.250194848209856,6.0956333073294084,6.672914077769632,7.1984729905251355,1.3067388275630591,5.891734162962076,2.4272894683086474,0.19581642056008938,mp-22925,22925
2556,NaSbS2,3.78629976,-0.9298336269504315,2.975e-05,0,0,24.28573745662409,20.79634890744598,15.576270193622868,13.554894597019002,14.565582395320934,27.249287422164798,19.32683239408561,7.922455028079189,2.8146856002188216,1.412970332273232,mp-5414,5414
2557,AlVFe2,7.29883611,-0.4287550874999999,0.018851,0,0,217.57954922890167,217.57954922890167,136.87783397358672,136.80755350113878,136.84269373736277,157.1722217616333,111.62594379799084,45.54627796364244,2.847231474929164,1.412970332273232,mp-5778,5778
2558,Mo2C,8.61518803,-0.11318197999999906,0.000982725,0,0,294.3896205902098,294.28351823491164,151.63151136047756,147.60219853882646,149.616854949652,157.1722217616333,111.62594379799084,45.54627796364244,2.847231474929164,1.412970332273232,mp-1552,1552
2559,MgAlAg2,5.32381355,-0.1804985208333334,0.0002152,0,0,78.18385764156233,78.18385764156231,35.35975273772274,11.15572456484119,23.25773865128196,157.1722217616333,111.62594379799084,45.54627796364244,2.847231474929164,1.412970332273232,mp-865919,865919
2560,TbCl3,-1.02560534,-2.7237054987500002,5.65e-06,0,0,13.81585928847209,13.631391822255248,8.244967919681493,6.976933318444852,7.610950619063172,157.1722217616333,111.62594379799084,45.54627796364244,2.847231474929164,1.412970332273232,mp-570232,570232
2561,ZrBiO4,4.58252491,-2.558127146666667,9.405e-05,0,0,127.68348728463154,119.01345175453847,60.273923003835115,45.57390803143166,52.92391551763339,157.1722217616333,111.62594379799084,45.54627796364244,2.847231474929164,1.412970332273232,mp-754588,754588
2562,HfFeP,7.89354303,-1.0404003777777777,0.0017708,0,0,212.87445904186555,212.6145315208689,126.52150906267637,123.31059777068957,124.91605341668297,157.1722217616333,111.62594379799084,45.54627796364244,2.847231474929164,1.412970332273232,mp-22434,22434
2563,HgPd3,3.72063155,-0.11715190624999972,0.0003345,0,0,134.58575920477992,134.58575920477995,37.93619316452547,23.26176881070127,30.59898098761337,157.1722217616333,111.62594379799084,45.54627796364244,2.847231474929164,1.412970332273232,mp-863720,863720
2564,Al3Ni5,8.91322567,-0.5658915687500006,0.0009302,0,0,167.24870285883568,167.12303842500947,83.66910941560533,65.81125215129248,74.7401807834489,157.1722217616333,111.62594379799084,45.54627796364244,2.847231474929164,1.412970332273232,mp-16514,16514
2565,AgCO3,0.93808798,-1.2365448553333338,0.0003497,0,0,66.25502911791995,58.616969185203665,-1.1445914381905145,45.7402536734742,22.29783111764184,157.1722217616333,111.62594379799084,45.54627796364244,2.847231474929164,1.412970332273232,mp-753176,753176
2566,TbI3,-0.34317167,-1.6622028812500003,1e-07,0,0,5.867205945642734,1.0934988900285756,3.285893024954371,0.30452745982288315,1.7952102423886271,157.1722217616333,111.62594379799084,45.54627796364244,2.847231474929164,1.412970332273232,mp-863264,863264
2567,V2InC,7.99810177,-0.3428894337500008,0.01065555,0,0,154.0308997610796,153.8959987897485,103.3346145292274,102.8713631959451,103.10298886258624,157.1722217616333,111.62594379799084,45.54627796364244,2.847231474929164,1.412970332273232,mp-20983,20983
2568,SnS,6.24363051,-0.6745067940625002,0.0006329,0,0,32.25780188044782,23.957691389388458,23.448231551212825,4.210417083658907,13.829324317435866,157.1722217616333,111.62594379799084,45.54627796364244,2.847231474929164,1.412970332273232,mp-559676,559676
2569,Cs2PdI6,1.55506702,-1.0376746606513412,0.000247,0,0,9.83461262677066,9.788875867330695,4.781043319522841,2.6184069690582996,3.69972514429057,157.1722217616333,111.62594379799084,45.54627796364244,2.847231474929164,1.412970332273232,mp-29806,29806
2570,CoCu2O3,4.35159094,-0.985334974166666,2.8437262,2,1,115.26979564268862,90.64643381989774,41.537762297403724,33.178782513737175,37.358272405570446,157.1722217616333,111.62594379799084,45.54627796364244,2.847231474929164,1.412970332273232,mp-20334,20334
2571,LiSi,4.68116803,-0.16207477604166654,0.0,0,0,52.10196700111908,51.98568846825182,35.809149861686656,32.863719461852874,34.336434661769765,157.1722217616333,111.62594379799084,45.54627796364244,2.847231474929164,1.412970332273232,mp-795,795
2572,Nb2ZnO6,1.42485267,-2.7647865047222218,0.000294,0,0,142.62778456427048,139.24861140728254,58.19688187232306,56.56811191632136,57.38249689432221,157.1722217616333,111.62594379799084,45.54627796364244,2.847231474929164,1.412970332273232,mp-17177,17177
2573,GdTe,6.20450974,-1.622416405000001,6.7963621,1,1,72.62554681574397,72.62554681574397,34.11408648799317,18.15266070108321,26.13337359453819,157.1722217616333,111.62594379799084,45.54627796364244,2.847231474929164,1.412970332273232,mp-574283,574283
2574,Ti2MnNi,6.82828689,-0.3383935036494261,0.0290942,0,0,176.59053567972745,176.59053567908953,66.37586734436846,66.37269781444013,66.3742825794043,157.1722217616333,111.62594379799084,45.54627796364244,2.847231474929164,1.412970332273232,mp-865712,865712
2575,CoN,5.22901013,-0.07377531500000067,0.0038319,0,0,250.7584863987589,250.75848639875892,50.6768859537632,46.40402735323493,48.540456653499064,157.1722217616333,111.62594379799084,45.54627796364244,2.847231474929164,1.412970332273232,mp-448,448
2576,V3Ru,6.74401468,-0.27934434125000074,0.0038569,0,0,225.4397224021115,225.4397224021115,95.34801962590114,87.8701195499178,91.60906958790947,157.1722217616333,111.62594379799084,45.54627796364244,2.847231474929164,1.412970332273232,mp-865382,865382
2577,Fe,6.04903189,0.14835174000000073,2.5341127,1,1,172.9767442537992,172.9767442537992,-36.18174948647711,55.003904045293204,9.411077279408048,157.1722217616333,111.62594379799084,45.54627796364244,2.847231474929164,1.412970332273232,mp-150,150
2578,NiP2,7.43656552,-0.3606927972222221,1.045e-05,0,0,124.59799525490195,87.66639196248249,82.51935194015753,51.99056466848917,67.25495830432335,29.462238923335587,2.9352728566689237,26.52696606666666,5.15043358045385,1.412970332273232,mp-486,486
2579,Li2MgSn,4.341319,-0.3314764354166666,0.0001088,0,0,33.037476837373404,33.037476837373404,29.215074559912946,9.0504870279244,19.132780793918673,157.1722217616333,111.62594379799084,45.54627796364244,2.847231474929164,1.412970332273232,mp-865935,865935
2580,Mn2VGe,7.9312908,-0.2775240352155173,0.9907881,3,2,224.38615029049373,224.38615029049373,108.74088377541416,102.03864018767456,105.38976198154435,157.1722217616333,111.62594379799084,45.54627796364244,2.847231474929164,1.412970332273232,mp-865554,865554
2581,NbO2F,-0.77401576,-3.1066610906250007,2.32e-05,0,0,140.12462445677943,132.65744612502922,72.74029160498564,41.23294311527683,56.986617360131234,15.711146633333335,9.965877383333336,5.745269250000001,2.396929129115002,4.4054467538037505,mp-752415,752415
2582,Sc3Hg,4.11525239,-0.2241006049999994,0.99321555,4,1,65.60677883468573,65.59106890208423,34.795609436551494,34.73609149899305,34.76585046777227,157.1722217616333,111.62594379799084,45.54627796364244,2.847231474929164,1.412970332273232,mp-861910,861910
2583,V3Au,6.29267855,-0.0361598049999996,1.39593805,6,1,186.33358737424635,186.3335873742463,78.75495114195101,66.73165577532686,72.74330345863893,157.1722217616333,111.62594379799084,45.54627796364244,2.847231474929164,1.412970332273232,mp-839,839
2584,LiCd2Pd,2.76806682,-0.40488165333333326,0.0008418,0,0,68.25672546458888,68.25672546458902,28.971905986307494,3.567325061347324,16.269615523827408,157.1722217616333,111.62594379799084,45.54627796364244,2.847231474929164,1.412970332273232,mp-867196,867196
2585,Hf5Al3,5.08852915,-0.29166954812500023,0.03593465,0,0,111.79404631286158,110.15968935517841,48.04646561351747,47.2661054837996,47.65628554865853,157.1722217616333,111.62594379799084,45.54627796364244,2.847231474929164,1.412970332273232,mp-2361,2361
2586,ScRh2Pb,7.67223749,-0.5848243712499999,0.3301727,0,0,139.79815922254386,139.79815922254383,-1.498397031671857,176.22458135064352,87.36309215948583,157.1722217616333,111.62594379799084,45.54627796364244,2.847231474929164,1.412970332273232,mp-862629,862629
2587,Ge(Te2As)2,5.19476166,-0.037040607857142964,0.0013573,0,0,30.1445420292024,15.96292747428845,19.220780338863392,11.030250104889184,15.125515221876288,52.25147792322986,3.1951044765631758,49.05637344666667,7.004025517276951,1.412970332273232,mp-14790,14790
2588,Mg3Tl,4.86563399,-0.03883065208333325,0.00061875,0,0,35.58759158449894,35.48199281515217,13.23193906060851,11.94646467778942,12.589201869198966,157.1722217616333,111.62594379799084,45.54627796364244,2.847231474929164,1.412970332273232,mp-864938,864938
2589,LiMnCoO4,2.5385563,-1.7893732430377673,4.99999935,4,2,120.82862241229921,120.6682508235343,59.743843808138614,40.62156086634682,50.182702337242716,157.1722217616333,111.62594379799084,45.54627796364244,2.847231474929164,1.412970332273232,mp-753984,753984
2590,LiInGe,5.39070005,-0.2270812327777776,0.0010502,0,0,42.96507701143363,42.96507701143362,32.89594689766702,32.44434747352161,32.67014718559432,157.1722217616333,111.62594379799084,45.54627796364244,2.847231474929164,1.412970332273232,mp-16343,16343
2591,Ba(MgP)2,2.98038428,-0.9310000473333335,0.0034239,0,0,51.05651265118275,51.03753326416608,38.20679099335214,37.22394441016751,37.71536770175983,16.31787536666531,7.901315949998641,8.416559416666667,2.901130713474777,1.412970332273232,mp-8278,8278
2592,NbCoO4,1.30214365,-2.2646659591666682,3.41e-05,0,0,150.35312108708308,147.9648484856818,55.62574292178077,48.87220342803182,52.2489731749063,157.1722217616333,111.62594379799084,45.54627796364244,2.847231474929164,1.412970332273232,mp-31518,31518
2593,SrCl2,0.07819131,-2.894602122222222,0.0,0,0,33.77685059469598,33.77685059469598,14.795568283888075,11.501774366588695,13.148671325238386,8.477107596895443,5.597663023561554,2.8794445733338896,1.6968926228061367,1.412970332273232,mp-23209,23209
2594,Ni2B,8.79724342,-0.28971922638888853,0.00222575,0,0,251.1282277865276,248.44104420243906,101.19300695435405,98.42504945068497,99.8090282025195,157.1722217616333,111.62594379799084,45.54627796364244,2.847231474929164,1.412970332273232,mp-2536,2536
2595,ZnCl2,-1.74269132,-1.5560338025000002,1.1925e-05,0,0,7.7377680798351225,7.119177190263928,5.86060078390096,4.910254105643385,5.385427444772173,5.121270103333333,2.30990763,2.811362473333334,1.67671180389873,0.13011259931305652,mp-22889,22889
2596,YCu,4.7234412,-0.24492717833333355,0.0005814,0,0,70.24211369481614,70.24211369481613,35.24098422015091,35.22305478375267,35.23201950195179,157.1722217616333,111.62594379799084,45.54627796364244,2.847231474929164,1.412970332273232,mp-712,712
2597,TiAl2,7.44214952,-0.4292770236111115,6.72e-05,0,0,108.55995966432152,108.55976251601236,82.80843376153575,81.41676997238375,82.11260186695975,157.1722217616333,111.62594379799084,45.54627796364244,2.847231474929164,1.412970332273232,mp-567705,567705
2598,CaGe2O5,4.80313393,-2.4994784274999997,6.9e-06,0,0,126.50236041705362,105.68423021421648,65.78182351203311,43.39348291994469,54.5876532159889,157.1722217616333,111.62594379799084,45.54627796364244,2.847231474929164,1.412970332273232,mp-554678,554678
2599,ZrRh,5.58223373,-0.7509855100000014,0.0003124,0,0,164.46626148581268,164.46626148581265,27.10414115707128,9.418164645654803,18.26115290136304,157.1722217616333,111.62594379799084,45.54627796364244,2.847231474929164,1.412970332273232,mp-2808,2808
2600,HgPd,3.86727113,-0.16971134749999983,0.0002906,0,0,115.10216271517106,115.10208238086607,36.592458026627625,32.411646955510925,34.50205249106928,157.1722217616333,111.62594379799084,45.54627796364244,2.847231474929164,1.412970332273232,mp-2685,2685
2601,MgSc2Cd,3.60034127,-0.16889628999999973,0.0011368,0,0,59.23417608381793,59.23417608381794,39.56438554236463,23.937968044684602,31.751176793524618,157.1722217616333,111.62594379799084,45.54627796364244,2.847231474929164,1.412970332273232,mp-866077,866077
2602,FeOF,0.92114815,-2.0788137441666663,0.0,5,8,138.7943445975564,131.42055825778212,57.90977401204537,49.976727087398366,53.94325054972187,15.436681943333333,10.943470576666668,4.493211366666666,2.119719643411993,0.9587463968965277,mp-759283,759283
2603,YCI,4.25588546,-0.9855873988888888,0.0001098,0,0,20.57458843859007,7.14047573851339,12.900474801394653,-0.04506024814975511,6.427707276622449,157.1722217616333,111.62594379799084,45.54627796364244,2.847231474929164,1.412970332273232,mp-23062,23062
2604,CuMoO4,3.07126792,-1.560859252500001,0.0579142,0,0,112.80669116835419,43.37606089354062,52.107117645686,32.536198538965834,42.32165809232592,157.1722217616333,111.62594379799084,45.54627796364244,2.847231474929164,1.412970332273232,mp-560888,560888
2605,TiGe2,7.46562905,-0.41886831777777783,4.435e-05,0,0,114.05643561012214,109.18781436241791,85.6334142787888,80.87537681277769,83.25439554578324,157.1722217616333,111.62594379799084,45.54627796364244,2.847231474929164,1.412970332273232,mp-567889,567889
2606,SrCu2O3,3.38174424,-1.6728206294444448,0.00150895,0,0,108.70030725925525,75.65569842248902,51.947555559533704,34.765237437137365,43.356396498335535,157.1722217616333,111.62594379799084,45.54627796364244,2.847231474929164,1.412970332273232,mp-753181,753181
2607,Cs2NbF6,2.34789504,-3.248234163429119,0.999747,1,1,20.483194950262256,19.526611438628414,9.084094448199096,8.454010364879391,8.769052406539243,10.563757763334621,7.969886473334619,2.593871289999999,1.610549996119338,1.412970332273232,mp-8995,8995
2608,MgSnPd2,7.49661272,-0.6797298812499992,0.0006781,0,0,112.4765464260214,112.47654642602149,38.06234813843254,13.976804599423092,26.019576368927815,157.1722217616333,111.62594379799084,45.54627796364244,2.847231474929164,1.412970332273232,mp-864883,864883
2609,CuPO4,0.96858089,-1.8382995555555546,0.0007213,0,0,38.461304431121,25.696533038704406,39.22161357982417,18.995042941253665,29.10832826053892,16.243397113333334,3.9425226,12.300874513333333,3.5072602574279164,0.5605175424551849,mp-540284,540284
2610,CeFeO3,5.69928209,-2.869897308000001,4.000047125,4,1,145.0193881924473,139.3783550811369,46.122779200843006,42.759705009239596,44.4412421050413,157.1722217616333,111.62594379799084,45.54627796364244,2.847231474929164,1.412970332273232,mp-756062,756062
2611,Ni2SbTe2,8.08232919,-0.4674334309999999,0.0088131,0,0,52.77509619097205,29.01089494674363,22.66257574019526,17.919785011124706,20.291180375659984,157.1722217616333,111.62594379799084,45.54627796364244,2.847231474929164,1.412970332273232,mp-3250,3250
2612,Na4WO4,1.23148053,-1.8533283995785448,0.0002897,0,0,42.98688376260394,41.4082548659675,25.20023870053496,21.361527479878646,23.280883090206803,157.1722217616333,111.62594379799084,45.54627796364244,2.847231474929164,1.412970332273232,mp-754694,754694
2613,LiTi2O4,5.03116805,-3.2462103921428564,0.0521081,0,0,132.11946570837824,132.11946570837821,67.8394747601898,62.33519473598243,65.0873347480861,157.1722217616333,111.62594379799084,45.54627796364244,2.847231474929164,1.412970332273232,mp-5670,5670
2614,ZnPd3,3.52921594,-0.31889551125000004,0.00031685,0,0,151.22507114350148,151.17128052998794,21.975164415586526,10.76569868706868,16.370431551327602,157.1722217616333,111.62594379799084,45.54627796364244,2.847231474929164,1.412970332273232,mp-971909,971909
2615,YCoC,4.08540922,-0.3090724355555565,0.4763821,2,1,146.1319907773883,138.912594156406,68.07892259592342,51.420803687576345,59.749863141749884,157.1722217616333,111.62594379799084,45.54627796364244,2.847231474929164,1.412970332273232,mp-21422,21422
2616,Li4WO5,1.32984402,-2.3375955218333333,8.5e-06,0,0,69.8484231717338,45.12755378182085,64.03687760415123,39.12142720636483,51.57915240525803,32.487345729999994,28.362797603333334,4.124548126666666,2.0308983545876114,6.627199451080373,mp-690542,690542
2617,Na2PtC2,1.47896423,-0.053895778620689325,1.41e-05,0,0,70.63285721185335,32.50197619021538,39.46912127987445,8.951457018693556,24.210289149284,157.1722217616333,111.62594379799084,45.54627796364244,2.847231474929164,1.412970332273232,mp-4366,4366
2618,K2AgP,1.49639947,-0.3443498602499999,0.0003988,0,0,23.11177234533616,22.633943261437718,12.594724014517436,9.486540683050405,11.04063234878392,11.839320376489638,5.122282409823008,6.717037966666631,2.591724901810883,1.412970332273232,mp-9778,9778
2619,TiCrO4,2.12116898,-2.703237982222222,2.0000002,1,1,186.81594025840317,174.58471153593928,64.41262321350523,54.910147549904636,59.66138538170493,157.1722217616333,111.62594379799084,45.54627796364244,2.847231474929164,1.412970332273232,mp-755596,755596
2620,MgB4,6.79040123,-0.13883316333333298,1.3725e-05,0,0,162.0108216151427,156.42952389028318,130.3153274070056,95.69872621892979,113.0070268129677,24.539743013333332,12.931457923333332,11.60828509,3.407093349176098,1.412970332273232,mp-365,365
2621,LiMg2,2.4798649,-0.051074661111111176,0.0006514,0,0,29.643462532190004,29.61330699150167,26.082709670363396,17.952761624454087,22.017735647408742,157.1722217616333,111.62594379799084,45.54627796364244,2.847231474929164,1.412970332273232,mp-865939,865939
2622,MgTlRh2,6.68063346,-0.2653749008333328,0.0010816,0,0,130.64203411588605,130.64203411588608,59.36455989331478,52.73988139897894,56.05222064614686,157.1722217616333,111.62594379799084,45.54627796364244,2.847231474929164,1.412970332273232,mp-864902,864902
2623,Si3N2,5.91537328,-0.6587529175,9.105e-05,0,0,140.47932602179424,140.4793260217942,72.67077381459866,72.08688111018068,72.37882746238967,157.1722217616333,111.62594379799084,45.54627796364244,2.847231474929164,1.412970332273232,mp-971682,971682
2624,K2O,0.47156282,-1.247857583666666,6.56e-05,0,0,27.11615091237066,27.116150912370664,14.497766776279795,10.148973199533787,12.32336998790679,9.240783873599,6.058907593599596,3.181876279999404,1.7837814552235383,1.412970332273232,mp-971,971
2625,Hf(CoSi)2,7.81061176,-0.7360970340000008,0.0001243,0,0,190.55754131643602,190.4415612170913,106.51959547114603,104.60973092027456,105.5646631957103,157.1722217616333,111.62594379799084,45.54627796364244,2.847231474929164,1.412970332273232,mp-571367,571367
2626,Li2VO3,2.59141856,-2.475888592361112,5e-08,4,1,109.68043794857847,105.82278690589855,75.14558768959208,63.89627829514001,69.52093299236604,157.1722217616333,111.62594379799084,45.54627796364244,2.847231474929164,1.412970332273232,mp-861577,861577
2627,BaSbPt,4.97977535,-0.9404453400000001,0.0043121,0,0,61.712073472988195,53.33263985478064,22.71546755224842,21.38057641893641,22.048021985592413,157.1722217616333,111.62594379799084,45.54627796364244,2.847231474929164,1.412970332273232,mp-8606,8606
2628,BiO2,3.93896558,-1.4597641266666663,9.25e-07,0,0,72.531291629532,8.85586779593164,41.27755165107876,6.071513642640439,23.6745326468596,29.988993675353637,22.338114792021525,7.650878883332115,2.766022213094485,1.412970332273232,mp-557993,557993
2629,TiMn2Ge,7.38779474,-0.3401090560488518,1.9891151,3,2,195.4193425418657,195.41934254186563,93.53223791860913,82.80465173443689,88.168444826523,157.1722217616333,111.62594379799084,45.54627796364244,2.847231474929164,1.412970332273232,mp-866376,866376