,formula_pretty,efermi,formation_energy_per_atom,total_magnetization_normalized_formula_units,num_magnetic_sites,num_unique_magnetic_sites,k_voigt,k_reuss,g_voigt,g_reuss,g_vrh,e_total,e_ionic,e_electronic,n,e_ij_max,material_id,b
1243,Li2CdSb,4.24637607,-0.4553721516666669,0.0006711,0,0,38.16221054384358,38.162210543843536,18.170931881565682,10.085889489597978,14.12841068558183,157.1722217616333,111.62594379799084,45.54627796364244,2.847231474929164,1.412970332273232,mp-16271,16271
1244,Au,5.20013194,0.00530064000000019,6.195e-05,0,0,135.4738313170992,134.7484928859668,24.887973193796576,23.355679894161945,24.12182654397926,157.1722217616333,111.62594379799084,45.54627796364244,2.847231474929164,1.412970332273232,mp-1008634,1008634
1245,GeC,9.01464754,1.2708488875000006,0.0004029,0,0,166.7870976824371,166.7870976824371,109.63623407758236,106.46345689608042,108.04984548683139,157.1722217616333,111.62594379799084,45.54627796364244,2.847231474929164,1.412970332273232,mp-1002165,1002165
1246,SrAlGe,4.20906862,-0.4703856705555551,0.0036937,0,0,49.25662471807818,43.91578689517385,35.107862983611746,34.20952285814507,34.65869292087841,157.1722217616333,111.62594379799084,45.54627796364244,2.847231474929164,1.412970332273232,mp-13311,13311
1247,ZrTe,7.4494828,-1.1086238900000005,0.0049843,0,0,95.67888366681422,90.45293575299998,62.426697430124385,49.70295687411368,56.06482715211904,157.1722217616333,111.62594379799084,45.54627796364244,2.847231474929164,1.412970332273232,mp-1539,1539
1248,SrPdF4,0.37809339,-2.8664100111111104,9.95e-06,0,0,64.13158225333882,63.609339901955664,23.70213817082083,21.73318088682503,22.717659528822928,6.445189000000002,3.6720473100000013,2.7731416899999997,1.6652752595291866,1.412970332273232,mp-12622,12622
1249,CuO,5.83846377,-0.7716011574999992,0.0065439,0,0,177.74276527884092,177.74276527884075,36.70950648153303,28.210607580326325,32.460057030929676,157.1722217616333,111.62594379799084,45.54627796364244,2.847231474929164,1.412970332273232,mp-14549,14549
1250,Hf,5.00781456,0.0,0.00013635,0,0,107.98907689295318,107.95598699581184,55.93376257914474,55.70780555659474,55.82078406786974,157.1722217616333,111.62594379799084,45.54627796364244,2.847231474929164,1.412970332273232,mp-103,103
1251,Rb2PdF6,-2.83760292,-2.402987928888889,0.0001188,0,0,16.5080709449371,16.5080709449371,8.211177382651716,8.176067551042571,8.193622466847144,6.004070196656432,3.749583693323105,2.2544865033333266,1.501494756345598,1.412970332273232,mp-14088,14088
1252,CuS,6.61864862,-0.3203311165624996,0.0021995,0,0,104.82740632444252,104.82740632444255,40.69963651780291,38.40436520530788,39.5520008615554,157.1722217616333,111.62594379799084,45.54627796364244,2.847231474929164,1.412970332273232,mp-1023128,1023128
1253,Cr3PtN,7.69890551,-0.39227757100000105,1.7401159,3,1,266.7819312319873,266.78193123198724,161.3639964421549,155.33531336157927,158.3496549018671,157.1722217616333,111.62594379799084,45.54627796364244,2.847231474929164,1.412970332273232,mp-10374,10374
1254,CaHg2,3.17528152,-0.4469216666666666,1.94e-05,0,0,40.47322828573485,34.58911158756062,17.243113154914308,15.012657476401396,16.127885315657853,157.1722217616333,111.62594379799084,45.54627796364244,2.847231474929164,1.412970332273232,mp-11287,11287
1255,Na2Se,0.07276857,-1.2192301018157323,0.000791,0,0,25.860055237219946,25.86005523721994,14.560250911084063,14.559230521909685,14.559740716496874,7.52103761072521,3.560668923350958,3.960368687374251,1.9900675082454493,1.412970332273232,mp-1266,1266
1256,V2C,6.48193022,-0.4538206866666658,0.0036037,0,0,218.998259738853,218.9487955891664,116.0438840151949,63.64989349323653,89.84688875421571,157.1722217616333,111.62594379799084,45.54627796364244,2.847231474929164,1.412970332273232,mp-1008632,1008632
1257,Ca3Au4,3.85390855,-0.7886757228571426,0.0044122,0,0,51.249773902831436,51.15493475373931,17.234926961629938,16.87885927508086,17.056893118355397,157.1722217616333,111.62594379799084,45.54627796364244,2.847231474929164,1.412970332273232,mp-12699,12699
1258,TiPt,7.26672884,-0.7846601416666674,0.0001773,0,0,182.3046539853863,182.30430574874006,26.73144451941436,-32.3673043971182,-2.8179299388519183,157.1722217616333,111.62594379799084,45.54627796364244,2.847231474929164,1.412970332273232,mp-11552,11552
1259,CeMg,5.52655458,0.08697864250000009,0.004435,0,0,67.39777927239908,67.3977792723991,30.05091928737321,11.72685178756486,20.888885537469033,157.1722217616333,111.62594379799084,45.54627796364244,2.847231474929164,1.412970332273232,mp-1062,1062
1260,BiB,5.9875859,0.821303085416667,0.0001848,0,0,72.37281380646976,72.37281380646976,61.052225428214136,57.63795901347308,59.34509222084361,157.1722217616333,111.62594379799084,45.54627796364244,2.847231474929164,1.412970332273232,mp-1006880,1006880
1261,C,4.73407215,1.3041921925000004,0.00641405,0,0,255.04359220683878,255.04359220683867,-117.59263605708199,-65.53723970402741,-91.56493788055471,157.1722217616333,111.62594379799084,45.54627796364244,2.847231474929164,1.412970332273232,mp-1018088,1018088
1262,CaPd5,3.14925716,-0.3671589966666667,0.0065276,0,0,113.94970153389247,112.93788922309933,49.72977743122096,49.14746368614207,49.438620558681514,157.1722217616333,111.62594379799084,45.54627796364244,2.847231474929164,1.412970332273232,mp-11826,11826
1263,Ti3B4,7.40271569,-0.9328539909523812,1.98e-05,0,0,225.52178924509715,224.07419167039637,215.88237475058074,211.03126025270817,213.45681750164445,157.1722217616333,111.62594379799084,45.54627796364244,2.847231474929164,1.412970332273232,mp-1025170,1025170
1264,BaAl9Ni2,6.9322286,-0.36106862000000045,0.0044528,0,0,78.62501962893066,78.58846697724876,46.94775557966691,44.925704399859704,45.93672998976331,157.1722217616333,111.62594379799084,45.54627796364244,2.847231474929164,1.412970332273232,mp-12549,12549
1265,MnNi,6.22194089,-0.041736448965517425,4.3914473,2,2,149.33523193530965,149.3352319353045,63.49476069261548,-1.3589299361273437,31.067915378244066,157.1722217616333,111.62594379799084,45.54627796364244,2.847231474929164,1.412970332273232,mp-11500,11500
1266,TiPRu,8.94812464,-1.0170403338888891,0.022156433333333333,0,0,221.25819201581072,220.36302645054133,103.62340737852016,102.77601976433891,103.19971357142953,157.1722217616333,111.62594379799084,45.54627796364244,2.847231474929164,1.412970332273232,mp-10739,10739
1267,LiV2N3,5.21405786,-1.1237539630555549,0.00047485,0,0,149.5736164219247,145.8185465175612,84.75686780089882,55.73237170156669,70.24461975123276,157.1722217616333,111.62594379799084,45.54627796364244,2.847231474929164,1.412970332273232,mp-1029338,1029338
1268,CdCN2,1.56267834,-0.08146699749999975,1.2e-06,0,0,92.87090218057808,79.97325035113259,28.399471611725275,21.322904961878386,24.86118828680183,13.123269320012332,8.672809756678998,4.450459563333332,2.1096112351173457,1.412970332273232,mp-10969,10969
1269,ZrCo3B2,5.90952584,-0.5566285155555555,0.0188981,0,0,244.00374029699717,243.98867389290362,137.97573543461348,121.56772937130309,129.7717324029583,157.1722217616333,111.62594379799084,45.54627796364244,2.847231474929164,1.412970332273232,mp-10059,10059
1270,Zr6Sb2Pt,6.20742942,-0.7220385888888896,5.99e-05,0,0,119.52290164416763,118.66365042541082,60.44497934687328,58.46841805710543,59.45669870198935,157.1722217616333,111.62594379799084,45.54627796364244,2.847231474929164,1.412970332273232,mp-12972,12972
1271,Hf5Te4,6.98486233,-0.8419409877777776,0.0004051,0,0,76.27769580056409,76.27730763850668,38.37303006925343,33.11277564408881,35.74290285667112,157.1722217616333,111.62594379799084,45.54627796364244,2.847231474929164,1.412970332273232,mp-12884,12884
1272,Sc(MnSn)6,8.40724815,-0.1293365578912467,12.7526859,7,2,112.55575365178713,112.49709234762524,71.67967986231113,68.67564045662932,70.17766015947024,157.1722217616333,111.62594379799084,45.54627796364244,2.847231474929164,1.412970332273232,mp-12697,12697
1273,Fe3Pt,5.45724264,-0.07336419750000012,8.4745814,4,3,177.32990770659168,177.32158379170266,48.56497568221468,24.481531119044014,36.52325340062934,157.1722217616333,111.62594379799084,45.54627796364244,2.847231474929164,1.412970332273232,mp-11798,11798
1274,Cs2Se,0.60717769,-1.2054080427352727,3.62e-05,0,0,11.686474138685778,11.686474138685776,5.098434922076523,4.714099257027284,4.906267089551903,7.101829477011773,3.5901251115506017,3.511704365461171,1.873954205806847,1.412970332273232,mp-1011695,1011695
1275,KCuO,1.47564343,-0.36596530266666605,0.000893,0,0,46.076730705389956,46.076730705389956,-183.9113028321493,116.30223599528503,-33.80453341843213,157.1722217616333,111.62594379799084,45.54627796364244,2.847231474929164,1.412970332273232,mp-1009020,1009020
1276,Ga2Cu,5.0055615,-0.08417823500000014,0.0004672,0,0,78.4561032316695,76.63214208487109,38.58125240765559,35.49643183507225,37.03884212136392,157.1722217616333,111.62594379799084,45.54627796364244,2.847231474929164,1.412970332273232,mp-11359,11359
1277,Ti2GaC,5.92571029,-0.7590894360416671,0.0090104,0,0,139.32710942931692,138.63932808942312,108.61551337619592,107.83932307371187,108.2274182249539,157.1722217616333,111.62594379799084,45.54627796364244,2.847231474929164,1.412970332273232,mp-12537,12537
1278,ZnBi,3.58584932,0.10665564625000012,0.000238875,0,0,38.42365226439777,38.36454276790046,16.91263099911436,15.854100118671548,16.383365558892955,157.1722217616333,111.62594379799084,45.54627796364244,2.847231474929164,1.412970332273232,mp-1006226,1006226
1279,VN,9.02088314,-1.1590071799999997,2.63e-05,0,0,307.8930894735335,307.62029830328953,111.10020138554133,88.39819089983068,99.749196142686,157.1722217616333,111.62594379799084,45.54627796364244,2.847231474929164,1.412970332273232,mp-1048410,1048410
1280,YCuAs2,5.81555595,-0.8216525679166669,0.00021715,0,0,90.17927820377145,88.68406621553183,48.948165149223584,47.92451583548186,48.43634049235273,157.1722217616333,111.62594379799084,45.54627796364244,2.847231474929164,1.412970332273232,mp-10991,10991
1281,Hg2Pt,3.16060557,-0.057873423333333264,0.0005789,0,0,86.34584013509111,80.60751259673451,30.44385825493122,22.64111029640519,26.54248427566821,157.1722217616333,111.62594379799084,45.54627796364244,2.847231474929164,1.412970332273232,mp-11470,11470
1282,ZnP4,5.41870544,-0.08566377966666679,0.000771075,0,0,61.3943202977568,61.34829716705403,35.96306838190514,34.48351071102083,35.22328954646298,157.1722217616333,111.62594379799084,45.54627796364244,2.847231474929164,1.412970332273232,mp-14587,14587
1283,Tb2O3,1.42030512,-3.983580082750001,1.84125e-05,0,0,140.006208019624,140.00620801962398,62.001999193175834,60.699507703576025,61.350753448375926,157.1722217616333,111.62594379799084,45.54627796364244,2.847231474929164,1.412970332273232,mp-1056,1056
1284,CsO2,1.07047007,-0.9798474259770114,0.9990108,2,1,17.75517345933172,17.594432781814117,7.891719243471977,2.286827125994604,5.08927318473329,157.1722217616333,111.62594379799084,45.54627796364244,2.847231474929164,1.412970332273232,mp-1441,1441
1285,Ca(ZnN)2,3.68786638,-0.5229833920000004,0.000283,0,0,120.5777065433756,119.98268909426601,81.670070562697,78.67242698384304,80.17124877327002,27.34747900332091,18.442368343320904,8.90511066,2.9841432036683493,1.412970332273232,mp-1029258,1029258
1286,MgSeO4,1.32942344,-1.8722565537239575,0.0,0,0,63.32441124865071,55.00529434474363,41.05638760712846,38.479889274763806,39.76813844094613,157.1722217616333,111.62594379799084,45.54627796364244,2.847231474929164,1.412970332273232,mp-12630,12630
1287,Li3Hg,1.08465505,-0.27992955625000016,0.0032323,0,0,25.8496818381703,25.849681838170298,13.0980553725949,9.400522728477675,11.249289050536287,157.1722217616333,111.62594379799084,45.54627796364244,2.847231474929164,1.412970332273232,mp-1646,1646
1288,SbF3,0.40286621,-2.6876072443749996,9.05e-06,0,0,16.64589793507971,12.849777514247192,7.809807835287898,7.202376964407593,7.506092399847745,9.477790553371728,6.6466618333716285,2.8311287200001,1.6825958278802726,1.5088264437558125,mp-1880,1880
1289,MgCu2,5.74216182,-0.1414163283333334,0.00011575,0,0,94.14784068165766,94.14784068165767,38.743474798377214,36.35364092894636,37.548557863661784,157.1722217616333,111.62594379799084,45.54627796364244,2.847231474929164,1.412970332273232,mp-1038,1038
1290,Cu2GeTe3,4.92844465,-0.30828199916666676,0.0002026,0,0,49.16356667450145,49.07608519347919,23.53841052784184,20.555449398573888,22.046929963207866,157.1722217616333,111.62594379799084,45.54627796364244,2.847231474929164,1.412970332273232,mp-12806,12806
1291,Rb2CN2,0.77108726,-0.5739929169999997,2e-06,0,0,26.100212128709618,25.395664576021108,12.260995994695683,7.39365039341783,9.827323194056756,8.763633475809641,6.001179262666658,2.7624542131429823,1.6620632398145934,1.412970332273232,mp-1029784,1029784
1292,LiMgAs,2.37069355,-0.7444915061111109,0.0010283,0,0,46.60532556989936,46.60532556989935,36.61041470502787,36.55970111201596,36.58505790852192,12.974628786689157,4.959263250022512,8.015365536666645,2.8311420905116447,0.11753065296903001,mp-12558,12558
1293,CaCd,2.36783474,-0.35410172500000003,0.0079052,0,0,30.515285549585524,30.51528554958552,19.085967839688344,11.54779128111902,15.316879560403681,157.1722217616333,111.62594379799084,45.54627796364244,2.847231474929164,1.412970332273232,mp-1073,1073
1294,ZrSiO4,4.33813367,-3.4791542341666664,0.0,0,0,225.7390531917596,218.2280981998492,103.74800826275113,98.38787917396728,101.0679437183592,157.1722217616333,111.62594379799084,45.54627796364244,2.847231474929164,1.412970332273232,mp-11736,11736
1295,Zr3O,4.95195531,-1.5410876687499995,0.0038511,0,0,133.99789017049568,133.93788254636164,57.47489090164365,53.07453437376696,55.274712637705306,157.1722217616333,111.62594379799084,45.54627796364244,2.847231474929164,1.412970332273232,mp-1017,1017
1296,Na2ZrN2,2.24747787,-0.8012956166206898,0.0001932,0,0,53.13266376511995,19.045048074309463,35.939505895887244,4.068258269604417,20.003882082745832,157.1722217616333,111.62594379799084,45.54627796364244,2.847231474929164,1.412970332273232,mp-1029316,1029316
1297,YCrO3,3.59259497,-3.1995367278333333,0.0,4,1,184.21666758209804,183.1113689646459,93.42502657665992,91.88054105860863,92.65278381763427,17.124010639999998,11.875488310000001,5.24852233,2.290965370755307,1.412970332273232,mp-18725,18725
1298,MnO2,0.07585949,-1.790686233477011,1.9925e-05,4,1,66.55228052853697,9.594332543242222,53.30584259924426,-1.7772575961094768,25.76429250156739,157.1722217616333,111.62594379799084,45.54627796364244,2.847231474929164,1.412970332273232,mp-1271850,1271850
1299,Ni3Mo,8.39069138,-0.09303739749999984,0.00079995,0,0,230.06443269738054,229.95791681143882,93.63398243324782,84.61155983366706,89.12277113345743,157.1722217616333,111.62594379799084,45.54627796364244,2.847231474929164,1.412970332273232,mp-11506,11506
1300,ZrSi2,7.91485625,-0.6004638316666681,0.00048115,0,0,126.72790427563314,122.63308644292603,97.53431257694218,92.76233689229772,95.14832473461996,157.1722217616333,111.62594379799084,45.54627796364244,2.847231474929164,1.412970332273232,mp-1515,1515
1301,TiF4,-3.3475899,-3.613191887666667,0.0,0,0,10.26918096322933,6.600564329544289,6.910006515717271,1.8420175627078084,4.376012039212539,38.24234433000001,35.794349636666674,2.447994693333334,1.5646068814029082,8.344623417462577,mp-1383199,1383199
1302,Al3Pt2,8.44059413,-0.9943251060000001,0.0007233,0,0,153.7030060360651,153.27205435042947,74.54816688438365,72.9133847678998,73.73077582614172,157.1722217616333,111.62594379799084,45.54627796364244,2.847231474929164,1.412970332273232,mp-10905,10905
1303,SrCuF4,0.25343815,-3.0527409744444447,0.9994316,2,1,66.90500880207009,65.5473291737603,26.822087286409083,25.992962294021197,26.40752479021514,6.6999046282836305,4.184498551570507,2.515406076713123,1.5860031767664033,1.412970332273232,mp-12265,12265
1304,TiZnO3,2.27041912,-2.7925575876666664,5.38e-05,0,0,173.6945748889561,167.67590754626,61.37749127765347,40.316695488627744,50.8470933831406,157.1722217616333,111.62594379799084,45.54627796364244,2.847231474929164,1.412970332273232,mp-14142,14142
1305,Tl2Pt2O7,4.90893717,-1.150827483787878,7.4e-06,0,0,168.4281432765005,168.42814327650052,83.10433242008511,83.09989281147233,83.10211261577872,17.470715076666647,7.315145949999992,10.155569126666656,3.186780370007738,1.412970332273232,mp-13801,13801
1306,C,3.85553442,0.001337235000001158,0.0,0,0,229.9652782542273,4.965724430362562,180.8564238185576,3.687420429027701,92.27192212379265,157.1722217616333,111.62594379799084,45.54627796364244,2.847231474929164,1.412970332273232,mp-169,169
1307,NbS2,3.78108485,-1.3099816254166659,0.1648733,0,0,38.19785888202496,7.4345428666060975,26.112393042638214,1.5793196458151462,13.84585634422668,157.1722217616333,111.62594379799084,45.54627796364244,2.847231474929164,1.412970332273232,mp-1802,1802
1308,CrSbSe3,4.65197703,-0.6863518204062494,3.0,4,1,33.25073491067176,30.099420360487855,20.36909889971643,17.392445978772653,18.88077243924454,35.78788039666666,18.943803526666667,16.84407687,4.104153611891251,1.412970332273232,mp-15236,15236
1309,SnPd2,7.24642292,-0.5406741200000003,0.001961325,0,0,134.56742881892433,132.21962139223706,26.030906855566347,19.172275216900065,22.601591036233206,157.1722217616333,111.62594379799084,45.54627796364244,2.847231474929164,1.412970332273232,mp-1851,1851
1310,Be2V,4.45104662,-0.21818012416666713,0.000446525,0,0,160.07092288649648,160.04285210754358,137.70140685093273,137.37160714954535,137.53650700023906,157.1722217616333,111.62594379799084,45.54627796364244,2.847231474929164,1.412970332273232,mp-11281,11281
1311,Cu2SnSe3,4.20339018,-0.5152686320052086,0.0010956,0,0,55.057864847427055,55.05617931844634,23.94828222007042,20.357635367397663,22.152958793734044,157.1722217616333,111.62594379799084,45.54627796364244,2.847231474929164,1.412970332273232,mp-11658,11658
1312,ZnCu2GeSe4,3.12275908,-0.5947719280468746,6.54e-05,0,0,58.96104888231405,58.96058739431237,28.72749318804769,24.789890240961636,26.758691714504664,157.1722217616333,111.62594379799084,45.54627796364244,2.847231474929164,1.412970332273232,mp-10824,10824
1313,W,6.72739967,0.08726064624999985,0.000556325,0,0,299.0051934930288,299.00519349302886,146.30065251134425,124.81649991190501,135.55857621162463,157.1722217616333,111.62594379799084,45.54627796364244,2.847231474929164,1.412970332273232,mp-11334,11334
1314,CrSi2,11.00688118,-0.3119574255555556,2.3e-06,0,0,195.74274067453132,195.32934176936138,156.62608314590878,155.99185749133625,156.30897031862253,61.17884827660232,30.324273266602322,30.854575009999994,5.5546894611670234,0.43432,mp-1222,1222
1315,NaRuN,4.1871017,-0.07919922051724153,0.00013505,0,0,108.53411441404631,77.74722043436957,40.514003666744266,29.375991108502344,34.9449973876233,28.85461763970606,9.113404363039395,19.741213276666667,4.443108515067651,1.69395927782857,mp-1029313,1029313
1316,BaLiP,2.36910455,-0.9101322522222226,2.445e-05,0,0,39.42879474727853,39.23740015682899,29.517178650052326,29.082223761113482,29.299701205582906,29.72374949666667,20.935747503333335,8.788001993333335,2.964456441463314,1.412970332273232,mp-13277,13277
1317,ScAuO2,3.39005289,-2.5636976687499997,1.07e-05,0,0,140.99382906287755,127.19064379667235,51.24310835868343,34.9536312658823,43.09836981228287,15.271757623318308,8.11810640665164,7.153651216666667,2.6746310430911153,1.412970332273232,mp-11023,11023
1318,MgWO4,2.17770549,-2.5673527400000005,0.00019295,0,0,137.3858621111232,134.59854644474507,71.64298269409272,68.52463193828794,70.08380731619033,14.005192646666663,9.731187119999998,4.274005526666666,2.0673668098977176,1.412970332273232,mp-18875,18875
1319,AlSb,4.49531085,-0.24720398249999986,0.00082225,0,0,49.15977360850664,49.143702831765495,28.80438993873317,27.666189687259774,28.23528981299647,12.829562981303193,1.3064358994508005,11.523127081852394,3.3945731811013284,0.10574158268275771,mp-1018100,1018100