,formula_pretty,efermi,formation_energy_per_atom,total_magnetization_normalized_formula_units,num_magnetic_sites,num_unique_magnetic_sites,k_voigt,k_reuss,g_voigt,g_reuss,g_vrh,e_total,e_ionic,e_electronic,n,e_ij_max,material_id,b
2476,SrI2,2.09181374,-1.962176153055556,0.000252025,0,0,12.860139266355551,12.608121446326322,7.353524167379016,6.777604984089698,7.065564575734356,7.664769266666667,4.015815033333333,3.6489542333333334,1.9102236082022788,1.412970332273232,mp-568284,568284
2477,CdBr2,-1.35198964,-1.2385409116666668,9.55e-06,0,0,13.634981751799266,7.23533947576703,6.179432483243304,1.1439433378496247,3.6616879105464646,7.480274913330543,3.9436386733305953,3.536636239999948,1.8805946506357898,0.00281022240674649,mp-27934,27934
2478,PtS,5.17995787,-0.6587477565624997,0.00022145,0,0,140.61221368948722,124.62982860642327,40.11108549424252,28.6111636889061,34.36112459157431,15.660751593333332,1.1971437600000001,14.463607833333333,3.803105025283069,1.412970332273232,mp-288,288
2479,SrRuO3,4.44164647,-2.191201141333334,2.00158225,4,1,166.5799116720972,166.24575716247563,71.65090870895634,69.21614695994667,70.4335278344515,157.1722217616333,111.62594379799084,45.54627796364244,2.847231474929164,1.412970332273232,mp-22390,22390
2480,NaNi5O6,4.93196932,-1.2254954755459764,4.9974987,5,5,152.51771388174595,152.46939867046353,75.17217125608258,74.10054560945642,74.6363584327695,157.1722217616333,111.62594379799084,45.54627796364244,2.847231474929164,1.412970332273232,mp-753049,753049
2481,LiNbO2,5.26247737,-2.6863822395833346,2.5e-07,0,0,161.49173757824923,146.90248468861793,110.62708291696799,90.33812214404777,100.48260253050788,16.462366106675475,7.7658959800088105,8.696470126666666,2.948977810473769,1.412970332273232,mp-3924,3924
2482,BeVCo2,6.07869969,-0.29295465374999985,0.9878235,2,1,192.96709576798932,192.96709576796087,76.95303771753227,36.29811598262035,56.625576850076314,157.1722217616333,111.62594379799084,45.54627796364244,2.847231474929164,1.412970332273232,mp-866288,866288
2483,Cs2CoF6,-2.23450821,-2.480116410651341,1.0000144,1,1,15.422146847449,15.422146847449001,6.818140772220493,6.756539896694075,6.787340334457284,5.928865473338448,3.541624733338468,2.38724073999998,1.5450698171927313,1.412970332273232,mp-610706,610706
2484,LiScF4,-1.26596686,-3.8875264938888883,1.38e-05,0,0,85.63799888809257,85.63669735660439,33.3636749829298,27.426419074036804,30.395047028483305,157.1722217616333,111.62594379799084,45.54627796364244,2.847231474929164,1.412970332273232,mp-559598,559598
2485,P,-4.18558948,3.517774656666667,2.9999906,1,1,0.3271654628970479,0.3271654628970478,-0.09741394095006764,-0.030662930164989298,-0.06403843555752847,157.1722217616333,111.62594379799084,45.54627796364244,2.847231474929164,1.412970332273232,mp-674158,674158
2486,Sr(NiGe)2,5.45012622,-0.5099501673333329,0.0027345,0,0,72.44823614192465,70.95549281349095,37.74221537055765,33.56486572547593,35.65354054801679,157.1722217616333,111.62594379799084,45.54627796364244,2.847231474929164,1.412970332273232,mp-3207,3207
2487,NbCrGe,6.9907598,-0.26626741944444476,0.0767581,3,1,195.97533605865672,195.4507341163166,98.80319663530531,91.69380875217408,95.2485026937397,157.1722217616333,111.62594379799084,45.54627796364244,2.847231474929164,1.412970332273232,mp-21440,21440
2488,CoO2,0.37585273,-1.072464286666668,0.0,2,1,88.58529162950957,43.31019188525381,50.68486098173783,20.792102945432898,35.738481963585365,157.1722217616333,111.62594379799084,45.54627796364244,2.847231474929164,1.412970332273232,mp-32686,32686
2489,TiPbO3,6.44925625,-2.7305897856666674,0.0002097,0,0,81.33451023538565,43.67588766529114,46.10813826150011,31.017660159387695,38.5628992104439,42.37236955666666,35.93321149333333,6.439158063333333,2.537549617905694,3.6330572166427553,mp-20459,20459
2490,Mg2NF,4.01918837,-1.9946218468749999,0.0003285,0,0,109.32025351622426,98.35998227165369,75.65852810828383,67.54383837386598,71.6011832410749,11.056561716690323,7.267515760023656,3.7890459566666674,1.946547188399672,1.412970332273232,mp-7589,7589
2491,FeO,3.56592346,-1.0186549012499997,4.037804325,4,2,124.42899912409388,123.51448276447005,32.021138437854304,31.14572352157043,31.583430979712368,157.1722217616333,111.62594379799084,45.54627796364244,2.847231474929164,1.412970332273232,mp-754765,754765
2492,LiNbS2,5.91385699,-1.5549216636458336,4.6e-06,0,0,84.19684983504722,80.89184730857804,58.02807023518897,55.8270192650024,56.927544750095684,15.483144276665458,3.477127953332124,12.006016323333332,3.464969887796044,1.412970332273232,mp-7936,7936
2493,GaBr3,-2.39955459,-1.2375509375,4.1525e-05,0,0,2.179028608966858,1.2019939091943832,1.3663219533959396,0.8810045568215568,1.1236632551087482,3.3679128733333337,0.8060783066666667,2.561834566666667,1.6005731994090953,1.412970332273232,mp-30953,30953
2494,YbNiSb,5.291188,-0.715195573333333,0.0142094,0,0,68.98822891705589,68.98822891704617,37.14169288213505,28.90483869650853,33.02326578932179,157.1722217616333,111.62594379799084,45.54627796364244,2.847231474929164,1.412970332273232,mp-568931,568931
2495,Sr3GaN3,2.38766227,-0.7891176024999993,0.0004103,0,0,61.3691012409038,60.8094241514567,37.71922794553745,37.56055107800667,37.639889511772054,15.92704413333061,8.805993516663944,7.121050616666667,2.6685296731845924,1.412970332273232,mp-7191,7191
2496,Ca4TiN4,3.25321257,-1.310336405925926,0.0017293,0,0,91.2286467658093,87.84693870361117,45.92894305526115,40.26874913302873,43.09884609414494,17.34318143666667,11.098309360000002,6.244872076666667,2.4989742048822086,1.412970332273232,mp-568469,568469
2497,ZrPd3,5.66954208,-0.8193450787499996,3.775e-06,0,0,168.75673079349704,168.7540690804826,79.98740248607702,78.62335348940152,79.30537798773926,157.1722217616333,111.62594379799084,45.54627796364244,2.847231474929164,1.412970332273232,mp-30842,30842
2498,HfIN,3.96439896,-1.6587177899999983,0.00024415,0,0,43.27122322427122,2.8281275657349636,23.992213681332824,-1.0478568081367399,11.472178436598043,157.1722217616333,111.62594379799084,45.54627796364244,2.847231474929164,1.412970332273232,mp-567441,567441
2499,Nb5Se4,6.12708999,-0.8793052199305562,0.0004671,0,0,115.6032646043952,115.56142645809977,59.89227423916444,47.10502476178668,53.498649500475565,157.1722217616333,111.62594379799084,45.54627796364244,2.847231474929164,1.412970332273232,mp-15837,15837
2500,Ni(PS3)2,3.09254344,-0.46126976726851865,7.35e-05,0,0,20.066398016833418,3.2022924116823557,13.643472952760606,0.7245146798137818,7.1839938162871935,15.715032686666666,1.4083330033333332,14.306699683333335,3.7824198184936235,0.14105242429678405,mp-769218,769218
2501,CuBr,2.52485269,-0.47661436874999996,6.55e-06,0,0,43.6750929047289,15.04116971116661,13.589708745816777,6.742192250074197,10.165950497945488,157.1722217616333,111.62594379799084,45.54627796364244,2.847231474929164,1.412970332273232,mp-23227,23227
2502,V2Si2O7,5.40101499,-2.889224619545455,3.99978865,2,1,165.5454787400687,211.28792628838337,39.692669823301266,-31.07820974155789,4.307230040871687,157.1722217616333,111.62594379799084,45.54627796364244,2.847231474929164,1.412970332273232,mp-754719,754719
2503,Y3TlC,4.34490493,-0.48969795866666743,0.0001161,0,0,75.10918770248317,75.10918770248318,63.71480411526568,63.44277958418746,63.57879184972657,157.1722217616333,111.62594379799084,45.54627796364244,2.847231474929164,1.412970332273232,mp-9960,9960
2504,Te4Pt3,7.36103419,-0.6204046542857142,0.0130003,0,0,58.24480170314463,40.25978469465991,30.08692331677881,23.01968398436554,26.553303650572175,157.1722217616333,111.62594379799084,45.54627796364244,2.847231474929164,1.412970332273232,mp-8628,8628
2505,MgZrPd2,4.78148992,-0.6995245525000007,0.0017027,0,0,118.6886273059468,118.68862730594682,36.969088911304134,32.276280324560794,34.622684617932464,157.1722217616333,111.62594379799084,45.54627796364244,2.847231474929164,1.412970332273232,mp-864907,864907
2506,FeP4,8.30551054,-0.3574131496666674,0.0003638,0,0,140.20226547110147,138.47233630597313,124.31576314503303,112.07505658082411,118.19540986292857,30.53537655,9.638445316666663,20.89693123333333,4.571316137977479,0.15138999999999994,mp-568328,568328
2507,Mn(Ni3O4)2,4.80416538,-1.3614321445287345,2.9999999,7,3,159.91431857484494,159.91431857484497,84.54767161541615,84.50528449097155,84.52647805319384,157.1722217616333,111.62594379799084,45.54627796364244,2.847231474929164,1.412970332273232,mp-19442,19442
2508,Mn(PtO2)3,5.1182965,-1.1890293337931042,5.0000613,1,1,190.9922752000218,189.8863216900581,74.97737713781738,65.24560875532575,70.11149294657156,18.658184509998556,2.4370540566652212,16.221130453333334,4.027546455763526,1.412970332273232,mp-18971,18971
2509,Y2Hf2O7,2.45955206,-3.997308192575757,0.0001331,0,0,170.8784323020961,170.8784323020961,95.79520465872618,95.30442006458657,95.54981236165636,157.1722217616333,111.62594379799084,45.54627796364244,2.847231474929164,1.412970332273232,mp-561442,561442
2510,HfS3,3.27559562,-1.5734968023437501,0.00082465,0,0,30.92836621575121,5.991078659084224,20.791677476551026,3.1202287001130684,11.955953088332047,9.60193014,3.1353782633333336,6.466551876666666,2.5429415794836236,1.412970332273232,mp-9922,9922
2511,LiZn2Rh,2.96441119,-0.41502215583333335,1.47e-05,0,0,99.76742833495189,99.76742833495186,46.84733791951246,18.7339889431863,32.79066343134938,157.1722217616333,111.62594379799084,45.54627796364244,2.847231474929164,1.412970332273232,mp-865912,865912
2512,V2CoO6,1.18557918,-2.1160345555555558,0.01069615,6,2,58.904562634521426,45.84484911684276,30.91836594885498,-16.91129061712994,7.00353766586252,157.1722217616333,111.62594379799084,45.54627796364244,2.847231474929164,1.412970332273232,mp-19311,19311
2513,YZn3,3.03128515,-0.37654623166666656,0.000465275,0,0,71.58412451026925,71.24007480270595,39.35516312149993,36.58056640613632,37.96786476381813,157.1722217616333,111.62594379799084,45.54627796364244,2.847231474929164,1.412970332273232,mp-30884,30884
2514,K3CoO2,0.87614742,-1.260138073166667,0.0,4,1,27.466874825223616,27.00861302975694,9.664791209581495,9.240414514982305,9.4526028622819,157.1722217616333,111.62594379799084,45.54627796364244,2.847231474929164,1.412970332273232,mp-28825,28825
2515,VPt3,7.55832827,-0.4436207750000003,0.0018624,0,0,240.80375912814452,240.6841259797347,116.8462019127944,104.61289290699614,110.72954740989528,157.1722217616333,111.62594379799084,45.54627796364244,2.847231474929164,1.412970332273232,mp-2705,2705
2516,PbI2,1.61315516,-0.9178012100000004,0.0007269,0,0,6.376190238737283,1.5916192624276162,3.42098721439787,0.9338745170503988,2.1774308657241344,17.05165916018684,11.703363606816453,5.348295553370391,2.312638223624783,1.412970332273232,mp-540789,540789
2517,TiNi,7.17674161,-0.3710916172222222,0.001123311111111111,0,0,151.84962349936984,151.42835387759342,38.23653077829441,37.246082184165445,37.74130648122993,157.1722217616333,111.62594379799084,45.54627796364244,2.847231474929164,1.412970332273232,mp-2716,2716
2518,CsTeAu,1.99890328,-0.8536636259770116,0.00045125,0,0,10.002845091051936,9.002345692644523,4.571789956376226,1.9018518466321743,3.2368209015042,157.1722217616333,111.62594379799084,45.54627796364244,2.847231474929164,1.412970332273232,mp-573755,573755
2519,CsCuSe4,1.9780835,-0.7390862933010057,0.000385775,0,0,12.878411458499459,10.826509504203445,9.269257764680235,7.25784196441519,8.263549864547713,10.619674206666666,2.768212423333333,7.851461783333334,2.8020459995034583,0.27915999999999996,mp-17095,17095
2520,NaNbO3,1.3652131,-2.8326689353103447,0.000347125,0,0,88.85021308591824,83.26608365286668,55.18447029749612,47.6727110960458,51.42859069677096,105.03436657333333,99.61754591666666,5.416820656666666,2.327406422751872,4.50082,mp-4681,4681
2521,TiAlFe2,6.9459049,-0.45417288083333407,0.9691693,3,2,184.5604670682485,184.56046706824847,105.69916152840351,104.15600851392942,104.92758502116646,157.1722217616333,111.62594379799084,45.54627796364244,2.847231474929164,1.412970332273232,mp-31187,31187
2522,Si,5.21193345,0.10309737499999994,7.2e-06,0,0,82.19261213412915,81.75788491290353,47.78281858251905,45.143370661355846,46.463094621937444,157.1722217616333,111.62594379799084,45.54627796364244,2.847231474929164,1.412970332273232,mp-999200,999200
2523,TiZn16,3.31243208,-0.06430715490196093,0.00053375,0,0,79.29482661040882,78.59976391931802,29.014697024929106,26.83583015908744,27.92526359200827,157.1722217616333,111.62594379799084,45.54627796364244,2.847231474929164,1.412970332273232,mp-2327,2327
2524,TiZn3,3.69071648,-0.20014775833333376,0.0002516,0,0,95.87921319331224,95.87921319331316,45.22174881651827,2.9219902618309344,24.071869539174603,157.1722217616333,111.62594379799084,45.54627796364244,2.847231474929164,1.412970332273232,mp-21289,21289
2525,Ca6Al2NF,3.60937672,-0.9650815197500006,0.3671041,0,0,41.094414239350485,41.094414239350506,25.293562935974204,13.586484669434645,19.440023802704424,157.1722217616333,111.62594379799084,45.54627796364244,2.847231474929164,1.412970332273232,mp-989399,989399
2526,Zr4In5Co2,6.70929521,-0.3447443172727276,0.0068,0,0,89.66735347911747,89.08131660488364,53.79856232495545,52.20684032379657,53.002701324376005,157.1722217616333,111.62594379799084,45.54627796364244,2.847231474929164,1.412970332273232,mp-607475,607475
2527,Sr3(FeO3)2,3.690268,-2.5155746600000004,10.0004372,2,1,109.13792327611789,108.37023704582981,58.999431294098066,51.589602518370945,55.294516906234506,21.131715974320933,16.552084890943714,4.57963108337722,2.14000726245899,1.412970332273232,mp-18924,18924
2528,Cd2GeO4,1.03900224,-1.7723275682142854,0.000454025,0,0,100.9823664226641,98.68220206257355,34.32575112948859,32.99966159181618,33.66270636065238,157.1722217616333,111.62594379799084,45.54627796364244,2.847231474929164,1.412970332273232,mp-3917,3917
2529,LiFeO2,3.57094463,-1.8700406108333336,4.999999,3,2,125.07381357108693,117.7405595365922,81.79247232375283,66.27374368332177,74.03310800353731,157.1722217616333,111.62594379799084,45.54627796364244,2.847231474929164,1.412970332273232,mp-19419,19419
2530,CaAl2,5.27749029,-0.3278675600000002,0.00388185,0,0,56.46385601159631,56.4638560115963,41.367412517915135,41.35402488606031,41.36071870198772,157.1722217616333,111.62594379799084,45.54627796364244,2.847231474929164,1.412970332273232,mp-2404,2404
2531,Sc(SiNi)2,7.66163208,-0.7668966709999993,0.0017619,0,0,150.8881863580938,146.69764143620714,63.389505824051966,61.02365307780013,62.20657945092604,157.1722217616333,111.62594379799084,45.54627796364244,2.847231474929164,1.412970332273232,mp-3587,3587
2532,FeWO4,2.94325974,-2.0226995100000003,3.9998771,4,2,141.825518644719,140.5681456288829,57.46638943822915,51.18974582807833,54.328067633153736,14.255947424892959,8.79522475424056,5.460722670652397,2.336818921237244,1.412970332273232,mp-19421,19421
2533,Sc2CuPt,6.01261142,-0.7991244550000003,0.0010453,0,0,112.92990116768057,112.9299011676806,42.66536547802513,39.63908833247381,41.15222690524947,157.1722217616333,111.62594379799084,45.54627796364244,2.847231474929164,1.412970332273232,mp-867117,867117
2534,WO3,0.40985095,-2.1846694781250005,6.635e-05,0,0,62.5292780219094,56.70225163586317,54.51994981091622,42.284218657603844,48.40208423426003,157.1722217616333,111.62594379799084,45.54627796364244,2.847231474929164,1.412970332273232,mp-19342,19342
2535,LiAlSi,4.91858404,-0.19126570444444488,0.000616,0,0,62.992534448727156,62.99253444872716,55.65083287462182,55.24621947622737,55.44852617542459,19.22894083662685,3.676551126626862,15.552389709999993,3.9436518241345793,0.496159523116079,mp-3161,3161
2536,YPd2Pb,6.17261561,-0.7003899891666672,6.29e-05,0,0,95.47943692715698,95.47943692715698,26.519569063027554,24.210096407088344,25.36483273505795,157.1722217616333,111.62594379799084,45.54627796364244,2.847231474929164,1.412970332273232,mp-22712,22712
2537,ZrNbP,6.83390556,-1.0793413686111109,6.945e-05,0,0,173.75380945457218,173.74794264139882,101.94748633782768,96.52018977919194,99.2338380585098,157.1722217616333,111.62594379799084,45.54627796364244,2.847231474929164,1.412970332273232,mp-4500,4500
2538,Ga2FeS4,4.2138237,-0.8084610724999999,4.0091297,1,1,30.352396662205926,8.633587169955089,19.508588397260077,4.4172604113976215,11.962924404328849,157.1722217616333,111.62594379799084,45.54627796364244,2.847231474929164,1.412970332273232,mp-20793,20793
2539,In10Sb9Te,6.55794281,-0.10537811000000019,0.0010977,0,0,47.095953014072755,47.09436761664283,20.395968655732005,11.672345488566918,16.034157072149462,157.1722217616333,111.62594379799084,45.54627796364244,2.847231474929164,1.412970332273232,mp-37501,37501
2540,Fe2Ge,6.91900379,-0.03420787166666628,3.90846615,4,2,137.8186697070734,137.818049418759,46.06979895076922,25.70878573971981,35.88929234524451,157.1722217616333,111.62594379799084,45.54627796364244,2.847231474929164,1.412970332273232,mp-20432,20432
2541,SiC,8.29321429,-0.196353039444443,0.00022041111111111112,0,0,213.39258505720582,213.38197130532947,188.95147803831762,184.1370104539788,186.5442442461482,157.1722217616333,111.62594379799084,45.54627796364244,2.847231474929164,1.412970332273232,mp-570690,570690
2542,Li(NiP)2,7.18928938,-0.6036086439999998,0.0016788,0,0,119.20735010510874,115.77653094600002,45.82224582923838,36.3643353785303,41.09329060388434,157.1722217616333,111.62594379799084,45.54627796364244,2.847231474929164,1.412970332273232,mp-8310,8310
2543,Co2SbTe,8.83035368,-0.2684721425000003,0.0019226,0,0,119.60059737567816,119.59599655609827,60.7722470987983,59.574965465354865,60.173606282076584,157.1722217616333,111.62594379799084,45.54627796364244,2.847231474929164,1.412970332273232,mp-35189,35189
2544,MoO3,0.42873088,-1.9245737215624992,0.0001965875,0,0,33.13696252095809,32.824145129618216,39.73012849529842,34.28145617870661,37.00579233700252,157.1722217616333,111.62594379799084,45.54627796364244,2.847231474929164,1.412970332273232,mp-18856,18856
2545,AlFeF5,0.63730009,-3.3123461560714285,4.0002552,1,1,103.66850052758477,96.07798492139601,56.36924959902331,37.37881139102394,46.874030495023625,6.645791046669776,4.516185643336442,2.129605403333333,1.4593167590805407,1.412970332273232,mp-28901,28901
2546,TlSbTe2,5.3000315,-0.4417455783333333,9.27e-05,0,0,30.63374686609861,30.037587048529648,21.18816481301352,15.150906396877305,18.169535604945413,138.52695788013128,103.86885055346461,34.65810732666666,5.887113666871624,1.412970332273232,mp-4573,4573
2547,Al2CdSe4,1.50165954,-1.0807913170535717,0.0001379,0,0,33.04271849725022,32.977838445646974,20.728836832790037,17.589193815839774,19.159015324314908,9.313653563331574,3.149980283331575,6.1636732799999985,2.4826746222572136,0.14985775044718605,mp-3159,3159
2548,Li9Ge4,1.66389431,-0.3447264142307691,5.875e-05,0,0,33.77474845279836,33.73498589856918,29.449863750784576,25.290455019383646,27.37015938508411,157.1722217616333,111.62594379799084,45.54627796364244,2.847231474929164,1.412970332273232,mp-27932,27932
2549,Li8CoO6,0.0287317,-1.940956565444445,4.99967345,10,4,73.2217798314461,73.152477897237,47.63914349023105,47.377444880914474,47.508294185572765,8.697419610024541,4.690857926676812,4.006561683347729,2.0016397486430293,0.2156056363796744,mp-27920,27920
2550,Mg3Hg,3.80797222,-0.11288600625000011,0.0048018,0,0,43.0540896073544,42.983585062719044,18.227659702006818,12.439184353241705,15.333422027624263,157.1722217616333,111.62594379799084,45.54627796364244,2.847231474929164,1.412970332273232,mp-731,731
2551,ZnS,1.93486997,-1.0614969823958333,0.0005298666666666667,0,0,69.74869537720379,69.74821985147045,34.00370837521025,32.989641586829904,33.49667498102008,9.227581793315062,3.3573467966467647,5.870234996668297,2.4228567841843844,0.09389131675593582,mp-9946,9946
2552,BAs,6.22320245,-0.009832494583332796,4.525e-05,0,0,131.47488842959865,131.4179028525118,127.90931899185928,124.46640411377976,126.18786155281953,9.894979196665723,0.09465134999905626,9.800327846666667,3.130547531449837,0.23544707494467443,mp-984718,984718