,formula_pretty,efermi,formation_energy_per_atom,total_magnetization_normalized_formula_units,num_magnetic_sites,num_unique_magnetic_sites,k_voigt,k_reuss,g_voigt,g_reuss,g_vrh,e_total,e_ionic,e_electronic,n,e_ij_max,material_id,b
2322,Si2CN4,2.15597846,-0.8678944499999994,1.005e-05,0,0,143.59662108748168,112.06248578795801,57.82662337747774,1.983514511016146,29.905068944246942,6.5087663666666655,2.9869988033333326,3.5217675633333325,1.876637302020114,0.4255672132577884,mp-30161,30161
2323,Sr2TiO4,2.51677959,-3.4442137609523806,0.0013715,0,0,126.9826676508447,126.98109621991135,75.44432106891232,74.71432650903098,75.07932378897165,112.85468427375918,107.82448090709251,5.030203366666669,2.2428114870997673,1.412970332273232,mp-5532,5532
2324,GeAs3,5.64187644,0.4105997600000002,0.0007575,0,0,73.02484810143238,68.18334450955818,12.658835002648035,25.382306879476005,19.02057094106202,157.1722217616333,111.62594379799084,45.54627796364244,2.847231474929164,1.412970332273232,mp-973736,973736
2325,ZrSi,6.85526726,-0.8978384087500002,0.0008038,0,0,141.58940709806313,141.3204839041542,96.54926025177127,90.17989800822959,93.36457913000044,157.1722217616333,111.62594379799084,45.54627796364244,2.847231474929164,1.412970332273232,mp-893,893
2326,Ba2PdO3,2.51228166,-2.281943640833333,1.85e-05,0,0,87.59651052247848,84.83078164870332,45.93321329310138,42.499083680292436,44.21614848669691,157.1722217616333,111.62594379799084,45.54627796364244,2.847231474929164,1.412970332273232,mp-29352,29352
2327,CrCuS2,5.72373347,-0.7683790165625002,3.0008412,1,1,96.25549418081525,92.19003745003337,42.14266864531838,39.95877549708474,41.05072207120156,157.1722217616333,111.62594379799084,45.54627796364244,2.847231474929164,1.412970332273232,mp-5862,5862
2328,YZrRu2,5.48513466,-0.46595102416666556,0.0016509,0,0,147.43102342558475,147.43102342558478,64.93930390922127,59.53795984336208,62.23863187629168,157.1722217616333,111.62594379799084,45.54627796364244,2.847231474929164,1.412970332273232,mp-866159,866159
2329,Tl,6.03630866,0.0009901666666665143,7.26e-05,0,0,26.527686317420063,26.527686317419587,5.49164095791487,-0.26445643571475447,2.613592261100058,157.1722217616333,111.62594379799084,45.54627796364244,2.847231474929164,1.412970332273232,mp-39,39
2330,WS2,4.04811837,-1.1537445770833337,7e-06,0,0,52.837596507888016,0.3677441380729492,38.916807950224424,0.7345426251279781,19.8256752876762,9.31248298953852,0.05854694619900569,9.253936043339515,3.042028277866515,1.412970332273232,mp-224,224
2331,MgCl2,-0.51593048,-2.2648385233333332,0.0,0,0,17.432532088348164,3.2305850332184565,11.278142168924582,0.6001175130804169,5.939129841002499,5.22271736331516,2.587606309981782,2.6351110533333775,1.6233025144234137,1.412970332273232,mp-570259,570259
2332,MgZn,3.56511076,-0.08821783999999999,0.0001491,0,0,50.75422970116083,50.496148967190386,21.2154802054115,6.754502675084844,13.984991440248171,157.1722217616333,111.62594379799084,45.54627796364244,2.847231474929164,1.412970332273232,mp-978268,978268
2333,La(FeSb3)4,8.04619063,-0.3608135844117642,0.9227291,4,1,87.68435148082865,87.68435148082864,57.927504585313486,54.39273413336498,56.160119359339234,157.1722217616333,111.62594379799084,45.54627796364244,2.847231474929164,1.412970332273232,mp-30073,30073
2334,ScNbO4,1.93528565,-3.4662618066666666,0.0003136,0,0,168.84740168991596,164.9225941212984,65.74652695340637,57.21329347835134,61.47991021587886,28.656229310000004,23.10947806,5.54675125,2.355154188158389,1.412970332273232,mp-553961,553961
2335,Li2CN2,0.58882221,-0.8393178553333328,0.0,0,0,53.63958059836476,45.604339822265636,20.107263390103057,13.941371582016606,17.024317486059832,5.400318559995192,2.699087153328525,2.701231406666668,1.6435423349176825,1.412970332273232,mp-9610,9610
2336,Ga2CoS4,3.06525857,-0.8199897246428566,3.0014755,1,1,44.21627958636353,44.175692488658264,29.647603956718303,25.571799978055036,27.60970196738667,11.250503040000003,2.75571987,8.49478317,2.9145811311404595,0.12957865265930188,mp-4152,4152
2337,SiW3,6.42987569,1.3390252475000004,0.0021297,0,0,183.71329831415002,183.71329831415,-2.3331445117068292,-289.4254709414511,-145.879307726579,157.1722217616333,111.62594379799084,45.54627796364244,2.847231474929164,1.412970332273232,mp-570334,570334
2338,TbO2,1.64419127,-3.188228366666666,0.9985239,2,1,142.44369424235083,142.44369424235086,2.0285208856850923,158.82259280620863,80.42555684594686,157.1722217616333,111.62594379799084,45.54627796364244,2.847231474929164,1.412970332273232,mp-2458,2458
2339,MnNbRu2,6.75573933,-0.164129904482758,4.0893591,3,2,219.5500482296756,219.55004822967564,92.82336502685331,83.56088749798964,88.19212626242148,157.1722217616333,111.62594379799084,45.54627796364244,2.847231474929164,1.412970332273232,mp-864992,864992
2340,Ca(MnSb)2,4.41315015,-0.37833485917241416,5e-07,2,1,36.48790441065775,33.60954726248671,18.45916022629009,13.843706294778679,16.151433260534386,157.1722217616333,111.62594379799084,45.54627796364244,2.847231474929164,1.412970332273232,mp-4150,4150
2341,Sr2FeO4,2.50855081,-2.5126467304761904,4.0000827,1,1,111.56751531159055,111.37458130365006,63.32839798410836,62.986074892380174,63.15723643824427,157.1722217616333,111.62594379799084,45.54627796364244,2.847231474929164,1.412970332273232,mp-19102,19102
2342,ScHg3,3.80067075,-0.23147733625,0.0005158,0,0,64.05596268436437,63.347224685845305,20.796264625123044,19.583428735845768,20.189846680484408,157.1722217616333,111.62594379799084,45.54627796364244,2.847231474929164,1.412970332273232,mp-30722,30722
2343,BaBr2,-0.03463019,-2.5807274016666666,0.0005555,0,0,20.72483223479928,20.43626553736129,8.377920933226484,7.194233928068731,7.786077430647607,157.1722217616333,111.62594379799084,45.54627796364244,2.847231474929164,1.412970332273232,mp-27456,27456
2344,BaAuO2,2.19428852,-1.7834825524999998,0.0003233,0,0,72.87583051207292,71.05180338343102,27.772747618937704,22.949256691419766,25.361002155178735,157.1722217616333,111.62594379799084,45.54627796364244,2.847231474929164,1.412970332273232,mp-997009,997009
2345,Y2S3,3.29730273,-2.3760403035416666,2.4916666666666668e-05,0,0,65.98264624619836,65.37735363081964,30.836536273266958,29.62757800402777,30.232057138647363,157.1722217616333,111.62594379799084,45.54627796364244,2.847231474929164,1.412970332273232,mp-541289,541289
2346,YSnAu,6.56315883,-0.8307911438888892,0.0004377,0,0,80.1289131010565,76.5920996053743,42.60588330330807,41.18571141295688,41.89579735813247,157.1722217616333,111.62594379799084,45.54627796364244,2.847231474929164,1.412970332273232,mp-567197,567197
2347,Ag2HgI4,0.98243359,-0.5161846926190476,0.0007444,0,0,10.945072632116474,10.60935626730991,5.830360501361151,4.699024641714202,5.264692571537676,9.070052743333333,3.7462236999999994,5.323829043333334,2.3073424200437467,0.16615844817522826,mp-23485,23485
2348,Ti3AlC2,6.95563937,-0.7626407166666667,0.0032045,0,0,159.14130332868865,157.90157358088553,126.43353539003132,125.3000644325879,125.86679991130961,157.1722217616333,111.62594379799084,45.54627796364244,2.847231474929164,1.412970332273232,mp-3747,3747
2349,K2PtCl6,-0.28395751,-1.611611978444444,0.000946,0,0,12.49076121334599,12.49076121334599,6.340236909220346,6.086209999946851,6.2132234545835985,9.509476206661017,6.325773016661028,3.1837031899999886,1.7842934708169473,1.412970332273232,mp-23513,23513
2350,SnRh2,8.48319118,-0.36264119999999994,0.0018324,0,0,177.5107120282397,176.49978586670574,56.46151041070774,53.85955809068112,55.160534250694425,157.1722217616333,111.62594379799084,45.54627796364244,2.847231474929164,1.412970332273232,mp-636334,636334
2351,ZrMo3,6.64732363,0.2276425075000006,1.585e-05,0,0,195.7649753123029,195.76497531230297,50.999621093239085,21.969327062312416,36.48447407777575,157.1722217616333,111.62594379799084,45.54627796364244,2.847231474929164,1.412970332273232,mp-30790,30790
2352,InP,4.75548917,-0.2015046466666659,7.625e-05,0,0,57.75753259668252,57.70267313666295,31.622832767245583,30.418421388319352,31.020627077782468,157.1722217616333,111.62594379799084,45.54627796364244,2.847231474929164,1.412970332273232,mp-966800,966800
2353,Te2Mo,6.39169599,-0.5554445900000005,0.0001043,0,0,30.12363121538896,1.5996491969464361,22.218835731900406,3.6243581156162867,12.921596923758345,15.246412826820292,1.0080404734777064,14.238372353342584,3.7733767839088883,1.412970332273232,mp-602,602
2354,LaAlO3,7.67988623,-3.7221933660000004,9.42e-05,0,0,181.31184898970722,180.85468563033038,109.26267411179924,101.48346349944477,105.37306880562201,29.69266266993847,24.991578503271807,4.701084166666667,2.1681983688460487,1.412970332273232,mp-2920,2920
2355,ScF3,-3.58073378,-4.296475640624999,2.4e-06,0,0,90.78312714839309,90.78265343368385,54.33942754279117,27.174208685478266,40.75681811413472,8.360143716666682,6.1292284100000165,2.230915306666667,1.4936248882054246,0.22175899567897142,mp-559092,559092
2356,Y(Al2Fe)4,7.17174347,-0.43256386051282025,5.4408906,4,1,123.098793397943,123.09580250402061,86.39392924404287,83.57146196873649,84.98269560638968,157.1722217616333,111.62594379799084,45.54627796364244,2.847231474929164,1.412970332273232,mp-4656,4656
2357,FeAsS,6.83936227,-0.6176492827083339,1e-06,0,0,143.31835648607287,142.15486531285202,120.03956296668066,113.84708290774856,116.94332293721462,37.34468819476001,12.327212885689937,25.01747530907007,5.001747225627268,1.412970332273232,mp-561511,561511
2358,BiIO,4.12884893,-1.3349335450000002,0.0015817,0,0,28.28090752582579,5.62475891468537,17.11854440578155,3.2055951174860446,10.162069761633797,48.638729743333336,41.993581186666674,6.645148556666668,2.5778185655058556,1.412970332273232,mp-22987,22987
2359,Hf6CoBi2,6.15900979,-0.2502774005555561,0.0180486,0,0,112.81787152141001,112.05374140646029,60.65607777825724,58.318721866451085,59.48739982235416,157.1722217616333,111.62594379799084,45.54627796364244,2.847231474929164,1.412970332273232,mp-31383,31383
2360,WSCl4,-1.79173026,-1.2925472138541665,0.0006776,0,0,1.266045316758984,0.7794772181125206,0.6693277989655735,0.4246129251264876,0.5469703620460306,157.1722217616333,111.62594379799084,45.54627796364244,2.847231474929164,1.412970332273232,mp-27475,27475
2361,CuHgO2,3.01105667,-0.7370161637499999,0.8045193,1,1,58.81193096170515,29.69638138941168,24.67745003447731,7.718946913630128,16.19819847405372,157.1722217616333,111.62594379799084,45.54627796364244,2.847231474929164,1.412970332273232,mp-772856,772856
2362,CaAl2O4,2.10361959,-3.446380854285714,3.5883333333333336e-05,0,0,78.57930224624647,72.56230834223143,42.735805178680444,41.45636749911356,42.096086338897,157.1722217616333,111.62594379799084,45.54627796364244,2.847231474929164,1.412970332273232,mp-559390,559390
2363,NaCuSe,3.79519351,-0.7490963979651575,7.295e-05,0,0,41.51258764942791,41.32878776118592,21.213389148771128,19.200608429469508,20.20699878912032,157.1722217616333,111.62594379799084,45.54627796364244,2.847231474929164,1.412970332273232,mp-7433,7433
2364,Ba5Al5Sn,3.77885412,-0.34690825409090886,0.004412,0,0,29.87953270367765,29.635655429730107,18.202841062359827,17.94295680637329,18.072898934366556,157.1722217616333,111.62594379799084,45.54627796364244,2.847231474929164,1.412970332273232,mp-570677,570677
2365,LiPdAu2,3.67147309,-0.34097107833333284,0.0004616,0,0,100.3239574148315,100.32395741483147,25.368276575004916,-14.482813510902426,5.442731532051245,157.1722217616333,111.62594379799084,45.54627796364244,2.847231474929164,1.412970332273232,mp-861930,861930
2366,ScGe,5.88309183,-0.8277953274999996,4.29e-05,0,0,89.26038385581599,89.25477525870953,62.46864967430525,51.75876483692144,57.11370725561335,157.1722217616333,111.62594379799084,45.54627796364244,2.847231474929164,1.412970332273232,mp-9970,9970
2367,NaP,3.32965515,-0.3805429961925286,5.575e-06,0,0,27.978141919648987,27.672801584077014,13.710115599955731,12.144178989497384,12.927147294726558,15.325081443333334,7.141571776666667,8.183509666666668,2.860683426502602,0.34658,mp-7440,7440
2368,TiInNi2,8.45671615,-0.33785971083333344,0.0007766,0,0,152.43789006935734,152.43789006935737,48.514497724305116,35.691300141727595,42.102898933016355,157.1722217616333,111.62594379799084,45.54627796364244,2.847231474929164,1.412970332273232,mp-22463,22463
2369,Sc(BC)2,5.99502122,-0.45910870116666586,0.000566675,0,0,215.12145353503826,164.58505069875935,172.0313575545488,129.85565907024176,150.9435083123953,157.1722217616333,111.62594379799084,45.54627796364244,2.847231474929164,1.412970332273232,mp-27693,27693
2370,Li8SiO6,0.67464508,-2.435039454777778,0.00055345,0,0,81.23104587865451,81.19928789636847,57.88164555329276,57.410798132531546,57.646221842912155,157.1722217616333,111.62594379799084,45.54627796364244,2.847231474929164,1.412970332273232,mp-28549,28549
2371,Co,5.2048952,0.11766239086956577,1.6669482282608696,46,11,199.13670902475235,198.8476487499036,37.88901550831941,-55.68943304177954,-8.900208766730064,157.1722217616333,111.62594379799084,45.54627796364244,2.847231474929164,1.412970332273232,mp-669382,669382
2372,CeGa2,5.26957469,-0.5906536066666662,0.6015513,1,1,67.65167688262348,59.530320089949605,57.376557535558256,51.74588503096861,54.561221283263436,157.1722217616333,111.62594379799084,45.54627796364244,2.847231474929164,1.412970332273232,mp-2209,2209
2373,Na3CoO3,1.06827112,-1.5743992056650242,3.9999854,8,4,51.444716211752024,51.068018936731065,25.64364271933505,23.964641647922342,24.804142183628695,8.47918007,5.023083280000001,3.4560967900000015,1.8590580383624395,1.412970332273232,mp-31126,31126
2374,MnCO3,1.96800262,-1.932404827586207,5.0,2,1,84.50386136298081,74.795696869246,42.538618149997646,36.26446420772568,39.40154117886166,85.91779587,82.79710140666667,3.120694463333333,1.7665487435486553,39.82858947642665,mp-690525,690525
2375,SiO2,-0.27173094,-3.2645922200000004,0.0,0,0,20.452788546806136,19.736173977925034,37.90286815919273,32.89757647199759,35.40022231559516,3.993373826666667,1.74666073,2.246713096666667,1.4989039651247398,0.20759922278274553,mp-554089,554089
2376,Cs2O,1.61294492,-1.1884128869540227,0.0018865,0,0,7.2037933534180905,3.2927706956068,3.5422933432052353,0.8217853232410335,2.1820393332231345,12.325556865442758,7.716827748763605,4.6087291166791555,2.146795080271789,1.412970332273232,mp-7988,7988
2377,CaMg(CO3)2,1.59054842,-2.572642166,0.0,0,0,93.31809721479677,85.49454279286363,48.552494765006266,38.84634008516928,43.69941742508777,7.913922713333335,5.162203720000001,2.751718993333334,1.6588306101990444,1.412970332273232,mp-6459,6459
2378,LiCl,-0.02569685,-2.1164494266666667,0.0002184,0,0,31.93906902785352,31.93906902785352,21.541704878903747,20.686619601378258,21.114162240141003,10.315526049977075,7.127559936643968,3.187966113333107,1.7854876402073208,1.412970332273232,mp-22905,22905
2379,ScInNi2,7.81085038,-0.44457331624999963,0.0005005,0,0,118.23404300018916,118.23404300018913,53.19950458653531,43.978785815660586,48.58914520109795,157.1722217616333,111.62594379799084,45.54627796364244,2.847231474929164,1.412970332273232,mp-21301,21301
2380,Na(VS2)2,3.82301191,-1.2596433184359606,3.0002421,2,2,45.91202894027619,39.231768698645865,25.42760186112891,9.159852464070704,17.293727162599808,157.1722217616333,111.62594379799084,45.54627796364244,2.847231474929164,1.412970332273232,mp-676586,676586
2381,La4PdO7,5.8815026,-3.360691400416666,0.0001381,0,0,121.2740592904973,105.82546392269948,55.80743529467727,45.002300480275935,50.4048678874766,157.1722217616333,111.62594379799084,45.54627796364244,2.847231474929164,1.412970332273232,mp-31031,31031
2382,Na2VO3,1.7730249,-2.2630531359339088,0.999516525,2,1,51.20230119353091,41.47436895130817,24.274473726183565,20.090978558646523,22.182726142415042,11.610194226666666,7.961239286666667,3.64895494,1.910223793171889,1.1900307913663413,mp-850201,850201
2383,ZrNiSb,8.19618547,-0.7011985916666662,0.00018455,0,0,135.11998506592872,134.06911599530181,55.700281072318624,52.767734255290236,54.234007663804434,157.1722217616333,111.62594379799084,45.54627796364244,2.847231474929164,1.412970332273232,mp-20697,20697
2384,Si3N4,7.69527654,-0.5927055546428578,0.00026015,0,0,197.42121247416162,182.0013951405277,103.21190736429735,39.6629839525275,71.43744565841243,157.1722217616333,111.62594379799084,45.54627796364244,2.847231474929164,1.412970332273232,mp-568867,568867
2385,ZrAlCu2,7.13618579,-0.3529459199999998,0.00014,0,0,128.44028657833826,128.4402865783383,53.00869570531427,48.24980794292462,50.62925182411944,157.1722217616333,111.62594379799084,45.54627796364244,2.847231474929164,1.412970332273232,mp-3736,3736
2386,FeOF,0.7781841,-2.0947903525,0.0,4,1,112.1782744735702,65.15215286551226,44.71834904341677,35.50613644918469,40.11224274630073,14.556457189999998,9.842176593333333,4.714280596666666,2.171239414865773,0.084705,mp-675006,675006
2387,CsTlF3,2.36550185,-2.4520765917528733,0.003745,0,0,43.925209901768554,43.922990854627756,17.540629328470754,16.026885598728924,16.78375746359984,157.1722217616333,111.62594379799084,45.54627796364244,2.847231474929164,1.412970332273232,mp-998234,998234
2388,GaAs,4.05532219,-0.004404876249999745,0.0007135,0,0,67.60029533451701,66.89509016391719,33.98181961565368,29.40134472512554,31.69158217038961,157.1722217616333,111.62594379799084,45.54627796364244,2.847231474929164,1.412970332273232,mp-603640,603640
2389,Be2PdPt,6.50360777,-0.6840844974999998,5.14e-05,0,0,192.3668325146153,192.36683251461534,47.36438996203411,-7.531456780943806,19.916466590545152,157.1722217616333,111.62594379799084,45.54627796364244,2.847231474929164,1.412970332273232,mp-864961,864961
2390,YMg2Sc,3.27603692,-0.06911031791666655,0.0303649,0,0,45.97613521409521,45.9761352140952,31.06074337592942,21.807544396896148,26.434143886412784,157.1722217616333,111.62594379799084,45.54627796364244,2.847231474929164,1.412970332273232,mp-979435,979435
2391,ZrCoBi,5.94056001,-0.42098131499999997,5.74e-05,0,0,116.81632279697367,116.81632279697371,64.16523792191893,60.4780083553002,62.32162313860957,30.773960390384815,9.83447019371827,20.939490196666544,4.575968771382356,0.6728964903639909,mp-31451,31451
2392,CrGaCo2,5.90754892,-0.11942477937499962,3.0081604,3,2,198.47179327175454,198.47179327175465,96.25921636019979,62.69335303844997,79.47628469932488,157.1722217616333,111.62594379799084,45.54627796364244,2.847231474929164,1.412970332273232,mp-567981,567981
2393,K2CO3,0.09809253,-2.1173924255833327,0.001000375,0,0,30.831360762209663,19.97890134784868,13.026133865287193,8.11153564649723,10.568834755892212,157.1722217616333,111.62594379799084,45.54627796364244,2.847231474929164,1.412970332273232,mp-3963,3963
2394,ZrGeTe,6.86542356,-0.9235142916666668,5.15e-06,0,0,72.36906847078723,43.72196997330836,55.69953193317527,33.05938780507477,44.37945986912502,157.1722217616333,111.62594379799084,45.54627796364244,2.847231474929164,1.412970332273232,mp-3208,3208
2395,SnPd3,6.65673549,-0.5168573062499995,0.0011894,0,0,145.7479028173276,145.74790281732757,54.75978071068924,48.248231565721724,51.50400613820548,157.1722217616333,111.62594379799084,45.54627796364244,2.847231474929164,1.412970332273232,mp-718,718
2396,Ti3Ga,5.69251572,-0.19212561687499985,1.7340149,1,2,108.33890338898546,108.33890338898547,40.96845761462116,13.179779836397456,27.074118725509308,157.1722217616333,111.62594379799084,45.54627796364244,2.847231474929164,1.412970332273232,mp-998988,998988
2397,K2AlF5,-2.45858762,-3.5160900510625,0.0006376,0,0,28.35451146547892,24.00261510216607,16.707654742009954,12.201465573335284,14.454560157672619,6.076721549999999,4.253648013333334,1.8230735366666666,1.3502124042781811,1.412970332273232,mp-9486,9486
2398,CuBr,3.37355005,-0.5176189337499997,0.0002619,0,0,42.86462696435218,42.86462696435218,13.794977847915963,11.73285140721032,12.763914627563143,9.086986823333326,2.8278129633333293,6.259173859999996,2.5018340992160124,0.31094666666666604,mp-22913,22913