,formula_pretty,efermi,formation_energy_per_atom,total_magnetization_normalized_formula_units,num_magnetic_sites,num_unique_magnetic_sites,k_voigt,k_reuss,g_voigt,g_reuss,g_vrh,e_total,e_ionic,e_electronic,n,e_ij_max,material_id,b
3789,Sc2CdIn,5.20432491,-0.37395832499999937,0.1660267,0,0,67.37373089148315,67.37373089148313,40.77380007611869,21.113568359716428,30.943684217917557,157.1722217616333,111.62594379799084,45.54627796364244,2.847231474929164,1.412970332273232,mp-862711,862711
3790,CaAlSi,5.27260347,-0.3653890772222223,0.0018822666666666668,0,0,61.675327957638,50.61291762870431,40.293083980523605,38.629459137815914,39.46127155916976,157.1722217616333,111.62594379799084,45.54627796364244,2.847231474929164,1.412970332273232,mp-570150,570150
3791,AlPO4,-1.20104694,-3.1101355288888883,0.0,0,0,121.3628495355819,121.3618421452676,39.763692819967154,38.03584566920674,38.89976924458695,3.620872480002085,1.6077202733354188,2.0131522066666663,1.418855949935252,0.4459890608523935,mp-545974,545974
3792,LaCo5,6.2069195,-0.020400733333333438,6.82052835,12,4,131.90771223942448,129.8579339599563,36.558696077363656,35.476104724354926,36.01740040085929,157.1722217616333,111.62594379799084,45.54627796364244,2.847231474929164,1.412970332273232,mp-570460,570460
3793,NbI2O,2.8983769,-1.62187431125,0.0018759,0,0,21.46794860111971,3.957038877415218,14.39237399661213,2.0062006176944953,8.199287307153313,11.36538765730233,4.643801813923205,6.721585843379124,2.5926021375018427,3.921081422049127,mp-549720,549720
3794,FeOF,1.43760378,-2.1102313266666664,0.0,4,2,132.9446471035269,125.04379480309873,61.85399157649018,52.236483087336524,57.045237331913356,13.814563729999998,9.476098226666666,4.338465503333333,2.0828983420544875,1.0974150998141041,mp-752975,752975
3795,Mg2Ni3P,7.62083967,-0.48343975055555494,0.0179043,0,0,130.40106343214225,129.1469951451107,69.97989544686531,67.72651499705836,68.85320522196184,157.1722217616333,111.62594379799084,45.54627796364244,2.847231474929164,1.412970332273232,mp-8969,8969
3796,Na2CuO2,2.94586422,-1.3317147006206895,1.0016114,3,2,67.06768519958757,65.13792351324946,30.659945317142878,17.201908557746794,23.930926937444838,157.1722217616333,111.62594379799084,45.54627796364244,2.847231474929164,1.412970332273232,mp-755974,755974
3797,HfZn2,3.86200591,-0.21682526333333327,0.83368445,2,1,113.15874977799689,113.15874977799686,58.18637946780782,58.05109361391993,58.11873654086388,157.1722217616333,111.62594379799084,45.54627796364244,2.847231474929164,1.412970332273232,mp-514,514
3798,Bi2Pb2Se5,4.28120475,-0.7197885646354167,0.002444,0,0,21.177509457148272,8.944186580579665,13.913356186712127,7.007083384170593,10.46021978544136,157.1722217616333,111.62594379799084,45.54627796364244,2.847231474929164,1.412970332273232,mp-570930,570930
3799,Hf2Ge,5.73700117,-0.650942888333334,0.00096745,0,0,132.69952593899745,132.69790827457123,93.93326850064186,92.33713291360822,93.13520070712504,157.1722217616333,111.62594379799084,45.54627796364244,2.847231474929164,1.412970332273232,mp-9939,9939
3800,AlPt2,8.05468591,-0.8536576074999994,8.05e-06,0,0,204.7990465937245,204.2747783587987,59.2946520607143,56.26387788931224,57.77926497501327,157.1722217616333,111.62594379799084,45.54627796364244,2.847231474929164,1.412970332273232,mp-16526,16526
3801,SeOF2,-2.01328426,-1.774278417460938,3.1675e-05,0,0,7.5770985887565665,7.418718337944203,5.092703497446471,4.651004842270441,4.871854169858456,4.177309999999999,1.7340130433333332,2.4432969566666665,1.5631049090405502,0.6002305258815148,mp-27367,27367
3802,ZrI2,4.58110884,-1.1452371016666667,8.79e-05,0,0,19.024952023392146,2.9048799514011976,14.378161839503829,0.629923782027408,7.504042810765618,157.1722217616333,111.62594379799084,45.54627796364244,2.847231474929164,1.412970332273232,mp-571279,571279
3803,V2GeC,7.73994713,-0.4845090287500007,0.0113907,0,0,179.5366186860519,179.53603308246397,105.05121572729303,97.60746578239404,101.32934075484354,157.1722217616333,111.62594379799084,45.54627796364244,2.847231474929164,1.412970332273232,mp-9957,9957
3804,Mn4Si7,9.80796381,-0.3876086317476496,0.00135785,0,0,192.95078909414238,192.8692384230255,134.10669649447982,133.3544466333283,133.73057156390405,157.1722217616333,111.62594379799084,45.54627796364244,2.847231474929164,1.412970332273232,mp-568121,568121
3805,Ni2Mo3N,8.50146514,-0.317415871666667,0.000284575,0,0,273.4835729877831,273.4835729877831,142.45385451793396,139.48083729982218,140.9673459088781,157.1722217616333,111.62594379799084,45.54627796364244,2.847231474929164,1.412970332273232,mp-4091,4091
3806,V6C5,7.44154974,-0.5438920978787868,0.0011815999999999999,0,0,238.50004015942412,238.19940700301322,175.9255373161849,173.33040004675806,174.6279686814715,157.1722217616333,111.62594379799084,45.54627796364244,2.847231474929164,1.412970332273232,mp-28731,28731
3807,NbNO,2.06556323,-1.914818533333334,4.255e-05,0,0,191.01954899482052,164.3751672502382,68.9344072550701,50.382027484121394,59.65821736959575,112.33475934333332,102.99705860666666,9.337700736666669,3.055765163861037,4.700999999999999,mp-752463,752463
3808,Nb3TeCl7,2.52881489,-1.6297385136363642,4.175e-05,0,0,22.41815343723274,3.4202044488020813,14.56993430615721,0.9032567486183655,7.736595527387788,157.1722217616333,111.62594379799084,45.54627796364244,2.847231474929164,1.412970332273232,mp-28938,28938
3809,ScSbRu2,9.346958,-0.6069088987499995,6.3e-06,0,0,178.15192180049027,178.15192180049027,101.97238229350637,101.62645837346933,101.79942033348786,157.1722217616333,111.62594379799084,45.54627796364244,2.847231474929164,1.412970332273232,mp-862561,862561
3810,Yb(MnAs)2,4.14285072,-0.5031918651724148,5.1103316,2,1,61.44177663532631,60.7335059152488,39.13611692693357,31.54892736076453,35.34252214384905,157.1722217616333,111.62594379799084,45.54627796364244,2.847231474929164,1.412970332273232,mp-9592,9592
3811,Sc2NCl2,4.89064963,-2.3010648349999996,0.012162,0,0,45.093110028721405,6.608510728831566,31.02520779375997,1.6351304281874783,16.330169110973724,157.1722217616333,111.62594379799084,45.54627796364244,2.847231474929164,1.412970332273232,mp-28480,28480
3812,TiS2,4.02478583,-1.6081458098611112,4.33e-05,0,0,33.16873383517885,3.548764619902853,24.869906558067658,3.2380037875181165,14.053955172792888,157.1722217616333,111.62594379799084,45.54627796364244,2.847231474929164,1.412970332273232,mp-2156,2156
3813,ZrMnO3,2.69580415,-3.053943192586206,0.0,2,1,145.84724272153912,137.1548509068362,56.133312234938856,50.95912902373998,53.546220629339416,157.1722217616333,111.62594379799084,45.54627796364244,2.847231474929164,1.412970332273232,mp-754980,754980
3814,SrCu2O3,3.38803054,-1.6813612319444442,5.94e-05,0,0,111.15576316635467,76.78202227695357,52.015789977964836,34.99603144240396,43.505910710184395,157.1722217616333,111.62594379799084,45.54627796364244,2.847231474929164,1.412970332273232,mp-5938,5938
3815,Cs3AuO,1.21020244,-0.8736941277586208,0.0,0,0,7.288550782602591,6.915620658301141,4.0094230588326285,-0.15406755612100267,1.927677751355813,15.944236690000002,11.621392986666669,4.322843703333334,2.0791449452439177,1.412970332273232,mp-505212,505212
3816,NiTe2,7.81585839,-0.5051258266666666,8.56e-05,0,0,54.014669924374886,43.919801742131654,25.845011761873078,19.417633634196772,22.631322698034925,157.1722217616333,111.62594379799084,45.54627796364244,2.847231474929164,1.412970332273232,mp-2578,2578
3817,Sc3InN,6.12274614,-1.191878701999999,0.0004158,0,0,103.57724609376324,103.57724609376325,81.29624805276414,81.23127864587501,81.26376334931958,157.1722217616333,111.62594379799084,45.54627796364244,2.847231474929164,1.412970332273232,mp-31055,31055
3818,Na2CuP,2.99861287,-0.3667200366091956,0.0001103,0,0,34.110177627034254,33.47665388026583,22.932808256607267,17.898196915907754,20.41550258625751,16.01528671666563,6.54057237666564,9.474714339999991,3.0781023927088573,1.412970332273232,mp-7639,7639
3819,C,10.44086999,2.7547879900000005,0.0010241,0,0,330.91343595960655,330.9134359596067,251.72287193576966,72.04123326979337,161.88205260278153,157.1722217616333,111.62594379799084,45.54627796364244,2.847231474929164,1.412970332273232,mp-998866,998866
3820,Li2(CoO2)3,3.39700016,-1.439908721969697,4.9996425,3,2,55.56091914966062,7.579350269712606,57.975123809032006,-11.853889584348593,23.060617112341706,157.1722217616333,111.62594379799084,45.54627796364244,2.847231474929164,1.412970332273232,mp-758539,758539
3821,NaTiS2,5.08978542,-1.590478449033765,0.8669079,1,1,54.26192981604455,52.99073859721878,36.6813077463456,35.60587749428124,36.14359262031342,157.1722217616333,111.62594379799084,45.54627796364244,2.847231474929164,1.412970332273232,mp-752947,752947
3822,HfZnCu2,5.17869762,-0.1967917425000003,5.32e-05,0,0,133.37186630936546,133.37186630933334,50.95644736918129,35.42160943594833,43.18902840256481,157.1722217616333,111.62594379799084,45.54627796364244,2.847231474929164,1.412970332273232,mp-866094,866094
3823,BN,2.25632505,-1.457241514583334,9.95e-06,0,0,199.6419909459092,4.166767099220342,145.706951966232,3.594821766032045,74.65088686613203,5.092234733341016,1.243361583341014,3.8488731500000024,1.9618545180517342,0.5696947543758898,mp-604884,604884
3824,Ni2Mo,8.21142548,-0.07654438333333265,0.003747,0,0,232.96664466022705,232.8671457652512,107.04858162942666,87.30319210190682,97.17588686566674,157.1722217616333,111.62594379799084,45.54627796364244,2.847231474929164,1.412970332273232,mp-784630,784630
3825,ScInAg2,5.51896347,-0.3132434270833331,0.0001218,0,0,83.09932640086153,83.09932640086198,34.18492988541663,-1.9869641214885199,16.098982881964055,157.1722217616333,111.62594379799084,45.54627796364244,2.847231474929164,1.412970332273232,mp-30347,30347
3826,ZrAsRu,7.19897352,-0.8556541744444451,0.006964499999999999,0,0,187.04422010947943,187.03995256488386,84.03270811027375,83.43824112512164,83.73547461769769,157.1722217616333,111.62594379799084,45.54627796364244,2.847231474929164,1.412970332273232,mp-8221,8221
3827,MgCl2,-1.363911,-2.1817660866666664,0.0002817,0,0,6.924146391432121,0.6142863816714296,5.392779308295461,0.848141181032415,3.120460244663938,4.5320691433333335,2.100791426666667,2.4312777166666666,1.5592555007652422,0.23753130993618504,mp-570922,570922
3828,NbN,7.91539207,-1.2079780400000004,0.00036105,0,0,315.0259550627461,315.02294407080166,189.94405817560934,188.7014443854466,189.32275128052797,157.1722217616333,111.62594379799084,45.54627796364244,2.847231474929164,1.412970332273232,mp-2701,2701
3829,Mg2PtRh,5.51097356,-0.7033575074999998,0.0001529,0,0,119.07535656645274,119.0753565664527,62.425777051794995,55.76762386015259,59.09670045597379,157.1722217616333,111.62594379799084,45.54627796364244,2.847231474929164,1.412970332273232,mp-864940,864940
3830,CoPt,6.64233402,-0.0858202324999997,2.2618898,2,2,216.28466647657382,215.51557389579048,113.60024077646204,102.39789108096517,107.9990659287136,157.1722217616333,111.62594379799084,45.54627796364244,2.847231474929164,1.412970332273232,mp-949,949
3831,ZnBr2,-1.02451737,-1.1821417816666668,0.0005051,0,0,13.973668284009783,2.1190591532621736,7.612591580693702,0.5539540052503485,4.083272792972025,157.1722217616333,111.62594379799084,45.54627796364244,2.847231474929164,1.412970332273232,mp-569960,569960
3832,CoTeO4,2.9783097,-1.359069918333334,0.0,2,1,65.75979136171549,9.999838299818972,41.54063835232068,8.092057354972152,24.816347853646413,157.1722217616333,111.62594379799084,45.54627796364244,2.847231474929164,1.412970332273232,mp-768381,768381
3833,MnSiRh,7.15874726,-0.5527420326436783,3.477833225,4,1,158.7704370623836,148.27125498910826,71.98026472938463,66.96603075218329,69.47314774078396,157.1722217616333,111.62594379799084,45.54627796364244,2.847231474929164,1.412970332273232,mp-22565,22565
3834,Zn(GaNi)3,5.59163587,-0.3732787335714285,0.0003627875,0,0,132.8131417523436,132.81314175234357,64.24869930784372,62.35171427475533,63.30020679129953,157.1722217616333,111.62594379799084,45.54627796364244,2.847231474929164,1.412970332273232,mp-570845,570845
3835,MgCo2,4.962803,-0.033146828333333524,2.641366825,8,2,118.53286779362598,118.50902710253068,57.19031430146155,56.5670089056571,56.87866160355932,157.1722217616333,111.62594379799084,45.54627796364244,2.847231474929164,1.412970332273232,mp-864931,864931
3836,PbWO4,2.41282121,-2.0032740075,0.0004986,0,0,66.44950424061653,64.58453845764124,23.123791099972532,20.324003179448226,21.72389713971038,157.1722217616333,111.62594379799084,45.54627796364244,2.847231474929164,1.412970332273232,mp-22410,22410
3837,Zr2CoP,5.90113126,-0.9335319495833332,0.0001088,0,0,154.6092629488518,153.93698575995668,79.93745583283199,76.2263473175654,78.08190157519869,157.1722217616333,111.62594379799084,45.54627796364244,2.847231474929164,1.412970332273232,mp-29152,29152
3838,SbSI,3.30733908,-0.606170199375,0.000479575,0,0,8.690465437873605,5.957485666267797,5.5013809265518665,1.481284273135345,3.4913325998436058,84.82323337999999,76.61523811,8.207995269999998,2.8649599072238336,1.412970332273232,mp-23041,23041
3839,LiFeP,4.82148601,-0.6527000105555558,1.785e-05,0,0,81.93843363538599,78.71927136557773,54.85695451826564,47.98237105935399,51.419662788809816,157.1722217616333,111.62594379799084,45.54627796364244,2.847231474929164,1.412970332273232,mp-20049,20049
3840,TiNi,7.06461834,-0.37315426500000054,0.2667383777777778,7,4,151.65078035673636,151.25207135602622,40.086239602216104,38.66452146682615,39.37538053452113,157.1722217616333,111.62594379799084,45.54627796364244,2.847231474929164,1.412970332273232,mp-597,597
3841,Zr3Te,6.18747201,-0.6054754937500011,0.025774,0,0,105.68547121308025,105.67689853822408,40.21411938511381,38.18718859544106,39.20065399027743,157.1722217616333,111.62594379799084,45.54627796364244,2.847231474929164,1.412970332273232,mp-1793,1793
3842,Mn2PtRh,5.92486276,-0.2816344764655172,9.015366,4,3,175.3119336926344,175.31193369263443,82.01232388846712,74.67064392564751,78.34148390705732,157.1722217616333,111.62594379799084,45.54627796364244,2.847231474929164,1.412970332273232,mp-865032,865032
3843,LiAlNi2,6.56872948,-0.3995444558333334,0.0058836,0,0,120.4007586037796,120.40075860385305,45.09883528707495,-111.12066372315188,-33.010914218038465,157.1722217616333,111.62594379799084,45.54627796364244,2.847231474929164,1.412970332273232,mp-867812,867812
3844,Li2NiO2,1.65201265,-1.643211543333333,2.0001366,1,1,53.31051615243448,10.261681743020286,34.23495779727342,-7.525654379066805,13.354651709103306,157.1722217616333,111.62594379799084,45.54627796364244,2.847231474929164,1.412970332273232,mp-754756,754756
3845,SrHfO3,2.16451853,-3.8085023363333335,1.9875e-05,0,0,155.03817428748113,154.23423476966408,87.69040732130684,84.87281944779389,86.28161338455035,157.1722217616333,111.62594379799084,45.54627796364244,2.847231474929164,1.412970332273232,mp-4673,4673
3846,Ti(GaO2)4,1.82847314,-2.550848699487179,0.0007172,0,0,157.50411371865513,143.70434896524313,74.53030892183473,65.90594603281434,70.21812747732454,157.1722217616333,111.62594379799084,45.54627796364244,2.847231474929164,1.412970332273232,mp-553991,553991
3847,HfO2,2.28791335,-3.991790159722223,5.11e-05,0,0,200.991855971494,199.43020405796597,100.81794800108598,89.91548119894932,95.36671460001764,157.1722217616333,111.62594379799084,45.54627796364244,2.847231474929164,1.412970332273232,mp-776097,776097
3848,BrF3,-1.38251485,-1.2424303275000002,4.5e-07,0,0,7.897944593617227,6.432412441548237,4.190824370604125,2.9099478790341613,3.550386124819143,8.971004369994033,6.241981116660686,2.729023253333347,1.6519755607554691,1.053630426931301,mp-23297,23297
3849,VS2,0.08437177,-1.1825171620833335,0.5885356,1,1,19.568261060662124,0.8646512787717402,16.700920468904986,-0.24829486719993896,8.226312800852524,157.1722217616333,111.62594379799084,45.54627796364244,2.847231474929164,1.412970332273232,mp-849060,849060
3850,BaSi2(NO)2,3.77712942,-2.3416668857142855,0.0003379,0,0,97.996844562669,91.41761750887406,63.81207182813509,-101.75628675686784,-18.972107464366374,157.1722217616333,111.62594379799084,45.54627796364244,2.847231474929164,1.412970332273232,mp-6764,6764
3851,Ge3(BiO3)4,2.82417425,-1.930595065526316,0.00010935,0,0,50.77193633375827,50.77193633375827,40.99571800241209,40.89304613560881,40.94438206901045,157.1722217616333,111.62594379799084,45.54627796364244,2.847231474929164,1.412970332273232,mp-23560,23560
3852,LiAlCu2,5.86026445,-0.22127855583333345,0.001994,0,0,88.1385886663614,88.1385886663614,50.855719706092515,28.746403341666763,39.80106152387964,157.1722217616333,111.62594379799084,45.54627796364244,2.847231474929164,1.412970332273232,mp-867272,867272
3853,BaSO4,1.06940886,-2.7072712488541666,2.7e-06,0,0,52.11560644408055,51.1481956743891,20.396327795944423,16.65375649881993,18.525042147382177,157.1722217616333,111.62594379799084,45.54627796364244,2.847231474929164,1.412970332273232,mp-3164,3164
3854,TiCoSb,7.3977234,-0.7251703294444442,0.001306,0,0,141.99140523524866,141.99140523524866,75.74131632777905,74.55912298223,75.15021965500452,31.733318537611257,11.261675184277996,20.471643353333267,4.524560017651801,1.042387090329083,mp-5967,5967
3855,Li2GaPt,4.11499346,-0.6653189985416668,0.0020226,0,0,84.70138796679278,84.70138796679277,39.83703957604973,20.802810430613086,30.31992500333141,157.1722217616333,111.62594379799084,45.54627796364244,2.847231474929164,1.412970332273232,mp-3726,3726
3856,CdSiAs2,3.06561178,-0.12145933249999974,0.0003056,0,0,59.48366573702203,59.33739723847142,32.63378156228045,28.89993352870021,30.76685754549033,20.017956449992308,2.871750573325643,17.146205876666667,4.1407977343341305,0.24332801233197696,mp-3078,3078
3857,YbMnO3,1.65394485,-2.4940852845862063,2.9997335333333335,18,5,115.94656391279793,111.13474595307339,48.410559335208106,43.380007207595966,45.895283271402036,157.1722217616333,111.62594379799084,45.54627796364244,2.847231474929164,1.412970332273232,mp-19356,19356
3858,SiRh,9.48399474,-0.7629441200000002,9e-07,0,0,196.48315655841148,170.7355990194663,96.9953338339347,83.65875957095788,90.3270467024463,157.1722217616333,111.62594379799084,45.54627796364244,2.847231474929164,1.412970332273232,mp-2287,2287
3859,MgMnRh2,5.63749089,-0.3235684744827587,3.627989,1,1,133.24878082811966,133.24878082811966,67.73230671433556,51.18299546954864,59.457651091942104,157.1722217616333,111.62594379799084,45.54627796364244,2.847231474929164,1.412970332273232,mp-977463,977463
3860,LiCu2Si,8.38164014,-0.20740252583333296,0.0002886,0,0,104.07323892041701,104.07323892041704,61.68710493386752,31.300921374398946,46.494013154133235,157.1722217616333,111.62594379799084,45.54627796364244,2.847231474929164,1.412970332273232,mp-7473,7473
3861,Fe2O3,2.88380023,-1.707096457,0.0,4,1,193.03593880966093,191.24032241753014,86.59432436647812,85.56095724677424,86.07764080662618,19.869691523879137,13.656312077198637,6.213379446680502,2.4926651292703763,1.412970332273232,mp-19770,19770
3862,TiAl,6.80837283,-0.40694453166666733,0.0031736,0,0,115.06056675088455,115.04630174465116,75.74193676326556,63.369914170763074,69.55592546701432,157.1722217616333,111.62594379799084,45.54627796364244,2.847231474929164,1.412970332273232,mp-1953,1953
3863,Li3C,1.92359791,0.4746879100000001,0.0050205,0,0,66.54432874739808,66.54432874739807,47.15036424499119,37.12201160864022,42.13618792681571,157.1722217616333,111.62594379799084,45.54627796364244,2.847231474929164,1.412970332273232,mp-976060,976060
3864,GdCl3,0.79749129,-2.7009571625,7.00057765,2,1,35.67601999038726,22.266675205238194,17.914024784909014,12.285104995635738,15.099564890272376,157.1722217616333,111.62594379799084,45.54627796364244,2.847231474929164,1.412970332273232,mp-23265,23265
3865,W,6.50347503,0.47142408000000025,0.0001111,0,0,282.86602011275505,282.86602011275505,-108.22192782244738,-94.3075220772883,-101.26472494986784,157.1722217616333,111.62594379799084,45.54627796364244,2.847231474929164,1.412970332273232,mp-8641,8641