,formula_pretty,efermi,formation_energy_per_atom,total_magnetization_normalized_formula_units,num_magnetic_sites,num_unique_magnetic_sites,k_voigt,k_reuss,g_voigt,g_reuss,g_vrh,e_total,e_ionic,e_electronic,n,e_ij_max,material_id,b
701,HfGeS,7.59404625,-1.219819349375,1.8e-06,0,0,127.4074802636265,127.31439441343792,82.88626494462342,80.9121696520016,81.89921729831251,157.1722217616333,111.62594379799084,45.54627796364244,2.847231474929164,1.412970332273232,mp-7918,7918
702,Ca(AlGa)2,4.96447176,-0.3474662529999996,0.0004461,0,0,58.19123132595728,57.206719953982,28.728011240232597,26.430232505619824,27.57912187292621,157.1722217616333,111.62594379799084,45.54627796364244,2.847231474929164,1.412970332273232,mp-9690,9690
703,La4Ni3O8,8.36107331,-2.6766914513333337,1.9997473,3,2,132.24959938076762,128.83870397116127,62.22662888136644,44.15078973884164,53.18870931010404,157.1722217616333,111.62594379799084,45.54627796364244,2.847231474929164,1.412970332273232,mp-557939,557939
704,CsCu3S2,1.97499436,-0.7089222156968399,0.0019368,0,0,15.791193758428802,14.688535250867428,9.190523217922555,5.973412696208587,7.581967957065571,7.472583367009572,2.765502447799033,4.707080919210539,2.169580816473666,1.412970332273232,mp-7786,7786
705,Bi2O3,4.50689941,-1.6417272150000002,3.75e-07,0,0,57.90638325784986,51.066468215060596,31.92154403806629,27.847377294776237,29.884460666421262,33.93963076000001,27.310473620000007,6.629157140000001,2.574714962864822,1.412970332273232,mp-23262,23262
706,AlF3,-1.26166888,-3.8697116268749996,0.0001384,0,0,126.48033801154331,126.48033801154331,83.92243497651465,70.48383146757772,77.20313322204618,4.929009590532202,3.0253762376126954,1.903633352919506,1.379722201357761,1.412970332273232,mp-8039,8039
707,YMnSi,5.44346649,-0.5635409348658994,1.94805445,2,1,91.66232543810295,86.26840286783654,58.814453114329204,50.18161918439801,54.49803614936361,157.1722217616333,111.62594379799084,45.54627796364244,2.847231474929164,1.412970332273232,mp-21249,21249
708,YMoO3,4.76542175,-2.7471031393333343,3.0002038166666662,6,1,124.02164313209181,119.4017573972508,41.011043651642,33.02044012038125,37.015741886011625,157.1722217616333,111.62594379799084,45.54627796364244,2.847231474929164,1.412970332273232,mp-1371109,1371109
709,Rb2PtF6,-1.15315366,-2.441966811111111,0.0004976,0,0,22.14889172769338,21.062367720384444,10.615582118734268,8.501064062129046,9.558323090431657,6.992890409996337,4.637399343329672,2.3554910666666666,1.534760915148241,1.412970332273232,mp-8192,8192
710,RhO2,4.08526215,-1.2189547283333322,0.00144435,0,0,237.5762610412627,229.67225002952753,112.25183816017532,76.54449270562873,94.39816543290203,157.1722217616333,111.62594379799084,45.54627796364244,2.847231474929164,1.412970332273232,mp-725,725
711,Cs2Pt3Se4,2.44333494,-0.9164591950263407,0.0005609,0,0,22.0114592181364,11.699388868396923,7.620339160046758,4.222026876800645,5.921183018423701,10.685924956666652,4.142666019999994,6.543258936666657,2.557979463691344,1.412970332273232,mp-14338,14338
712,TiFe2Ge,7.16593483,-0.4796471020833337,1.21e-05,0,0,214.58812943536972,214.5881294353697,126.77277070743007,126.77084762721331,126.77180916732169,157.1722217616333,111.62594379799084,45.54627796364244,2.847231474929164,1.412970332273232,mp-866375,866375
713,SmS,1.6007164,-2.0429176440625003,0.0003094,0,0,33.384575189370224,-0.8675669367377212,22.79765763005777,0.1403471635788753,11.469002396818324,157.1722217616333,111.62594379799084,45.54627796364244,2.847231474929164,1.412970332273232,mp-1879,1879
714,NiRhF6,-0.45472809,-1.9953986018750003,3.0014947,2,2,39.762558056639705,33.314665781447765,33.85437764228389,23.28909012911015,28.57173388569702,157.1722217616333,111.62594379799084,45.54627796364244,2.847231474929164,1.412970332273232,mp-20580,20580
715,SiO2,1.26119822,-3.1075871624999993,0.0,0,0,89.54952867265972,89.53747814823444,44.175172890800965,40.19648343320841,42.18582816200468,157.1722217616333,111.62594379799084,45.54627796364244,2.847231474929164,1.412970332273232,mp-572283,572283
716,TiMnO3,3.64199834,-2.9546040562528737,0.0,2,1,162.0832323892698,156.15022315226804,67.70516948733973,61.24906528351765,64.4771173854287,23.568827869960995,17.747709923294323,5.821117946666668,2.4126993071385145,1.412970332273232,mp-19082,19082
717,PtN,5.88576736,0.9566425074999998,0.0047223,0,0,192.06097501475233,192.06097501475236,-3.337479533119852,11.995651934584812,4.32908620073248,157.1722217616333,111.62594379799084,45.54627796364244,2.847231474929164,1.412970332273232,mp-13174,13174
718,Sb2S2O,4.13112372,-0.9502169307500005,0.00015975,0,0,15.84670377039408,9.918934967056614,15.350037643311953,6.676230672034071,11.013134157673012,157.1722217616333,111.62594379799084,45.54627796364244,2.847231474929164,1.412970332273232,mp-28711,28711
719,Sc2Ti2O7,0.97147834,-3.727578647424242,4.3e-06,0,0,140.53099362830568,134.30893793069154,50.53555123071899,46.15350914769123,48.34453018920511,16.94157101,12.282898266666665,4.658672743333334,2.1583958727104102,1.412970332273232,mp-753802,753802
720,Cd(PtO2)3,4.58867672,-1.0797970040000002,5.41e-05,0,0,193.58872418701856,190.2584691819222,74.51480292281673,66.1980142437734,70.35640858329506,19.260006073332963,1.8865820733329686,17.373423999999996,4.168143951448894,1.412970332273232,mp-8212,8212
721,MnCoSi,7.2101589,-0.4315616659770119,3.47346005,8,2,162.39708312307172,158.70947372376602,88.1089710763806,84.20379735336807,86.15638421487434,157.1722217616333,111.62594379799084,45.54627796364244,2.847231474929164,1.412970332273232,mp-19809,19809
722,V3Si,7.35063881,-0.44520859374999944,0.8382519,6,1,195.77976589811175,195.77976589811175,74.33638115382126,72.7348425663412,73.53561186008123,157.1722217616333,111.62594379799084,45.54627796364244,2.847231474929164,1.412970332273232,mp-2567,2567
723,FeOF,0.81146718,-2.10991439,0.0,4,1,111.99713844801877,75.05712494167923,47.81929531213431,40.456807459875826,44.13805138600507,15.436538686666665,11.014230256666666,4.42230843,2.102928536588916,1.412970332273232,mp-759543,759543
724,Ca2CoN2,3.62182909,-0.7786037489999998,1.6821251,1,1,88.25419939728687,87.25802591763976,49.36147145215042,47.014431935099346,48.18795169362488,157.1722217616333,111.62594379799084,45.54627796364244,2.847231474929164,1.412970332273232,mp-1029532,1029532
725,Sc2GaAg,4.30199618,-0.4703854710416664,0.0146416,0,0,80.0893813815981,80.08938138158055,40.67372052222644,35.58349528671832,38.128607904472375,157.1722217616333,111.62594379799084,45.54627796364244,2.847231474929164,1.412970332273232,mp-862339,862339
726,KNO2,-0.87046798,-1.2927115244999996,6.56e-05,0,0,17.734172824750218,16.193733618979316,7.681190211457852,4.1800603718837435,5.930625291670798,4.5677075899999995,2.5318488066666665,2.0358587833333335,1.4268352334216217,0.16638644268539976,mp-34857,34857
727,CoP2O7,1.03413154,-2.0612770766666664,4.9966808,5,5,78.18560505398844,70.78162130370046,44.41249801018785,40.642887175823525,42.52769259300569,157.1722217616333,111.62594379799084,45.54627796364244,2.847231474929164,1.412970332273232,mp-27044,27044
728,Li3Mg,0.90432612,-0.022175647499999895,0.0026964,0,0,19.028520769667935,18.96656001306621,10.223412431822362,6.122783235602119,8.17309783371224,157.1722217616333,111.62594379799084,45.54627796364244,2.847231474929164,1.412970332273232,mp-976139,976139
729,Na3Bi,1.36403368,-0.3693260724137932,0.0025149,0,0,17.155106690718434,17.115269912576686,11.058874469138994,9.667595227034628,10.363234848086812,157.1722217616333,111.62594379799084,45.54627796364244,2.847231474929164,1.412970332273232,mp-27838,27838
730,Rb2ZrO3,0.01297233,-2.7230879225,0.00028875,0,0,38.64616933887814,29.21286884235462,14.778631883245568,0.6954803738880097,7.737056128566789,157.1722217616333,111.62594379799084,45.54627796364244,2.847231474929164,1.412970332273232,mp-752401,752401
731,Sr2CuC(NO)2,2.86541012,-1.510348234166666,0.0069718,0,0,76.53657723606155,73.31824497330575,34.23683546712633,6.661477666760212,20.449156566943273,157.1722217616333,111.62594379799084,45.54627796364244,2.847231474929164,1.412970332273232,mp-1021672,1021672
732,YSn3,7.95980451,-0.43381893041666686,0.0019858,0,0,61.92559383364877,61.9255938336488,17.640932568926708,10.31830324009876,13.979617904512734,157.1722217616333,111.62594379799084,45.54627796364244,2.847231474929164,1.412970332273232,mp-11571,11571
733,SnC,7.78231166,0.8168832674999997,0.0010282,0,0,120.96631034330737,120.96631034330733,89.98305287951305,79.44153221184138,84.71229254567722,14.51080552666667,4.021263086666668,10.489542440000003,3.238756310684705,0.08534666666666658,mp-1009820,1009820
734,LiB(CN)4,-4.33595993,-0.16112058525000067,0.0,0,0,29.83859507291945,29.838595072919446,7.706269988051741,6.626618705123385,7.1664443465875625,2.7339618499999987,0.58604512,2.147916729999999,1.4655772685191317,0.01532666666666667,mp-13590,13590
735,Ba3N,1.95063697,-0.4008138762500004,0.00234795,0,0,13.359101847421975,11.98084820137861,7.481785057096816,3.696872236516287,5.5893286468065515,157.1722217616333,111.62594379799084,45.54627796364244,2.847231474929164,1.412970332273232,mp-10736,10736
736,MnZn3,3.46021838,-0.03106088448275912,2.5374696,1,1,88.10285835311089,88.10285835311089,47.72266569282934,31.88756996328144,39.80511782805539,157.1722217616333,111.62594379799084,45.54627796364244,2.847231474929164,1.412970332273232,mp-11504,11504
737,Ba3RuN3,3.72786566,-0.6075384014285713,1.838499,2,1,46.635646975328626,45.49019400212535,24.75165181963714,24.559642779844015,24.65564729974058,157.1722217616333,111.62594379799084,45.54627796364244,2.847231474929164,1.412970332273232,mp-1029537,1029537
738,Nb3Ga2,4.86262346,-0.3632177859999999,0.00212295,0,0,167.36503273517184,166.95616331374066,98.69272216650286,94.95662542962818,96.82467379806552,157.1722217616333,111.62594379799084,45.54627796364244,2.847231474929164,1.412970332273232,mp-11393,11393
739,VSi2,9.90267122,-0.4367233555555564,0.11376303333333333,3,1,175.24667140360827,173.74962198276907,147.50307255888595,146.34740287116665,146.9252377150263,157.1722217616333,111.62594379799084,45.54627796364244,2.847231474929164,1.412970332273232,mp-10711,10711
740,AlV3,6.47361175,-0.13424391499999988,0.17173495,2,1,159.3299949111401,159.32999491114003,17.294733870980235,3.861688870674386,10.57821137082731,157.1722217616333,111.62594379799084,45.54627796364244,2.847231474929164,1.412970332273232,mp-1387,1387
741,Ca3Al7Ag2,5.14407108,-0.31012263444444405,0.015868,0,0,63.12328486668715,62.84980228626671,40.054792019621416,39.779356857993704,39.91707443880756,157.1722217616333,111.62594379799084,45.54627796364244,2.847231474929164,1.412970332273232,mp-11430,11430
742,CuF2,1.09219321,-1.8129397616666667,1.0044971,2,1,81.84335111061695,35.45039473169654,29.49101740460608,11.859596344677792,20.675306874641937,157.1722217616333,111.62594379799084,45.54627796364244,2.847231474929164,1.412970332273232,mp-1229,1229
743,SrCN2,0.90223532,-1.0384971091666673,1.29e-05,0,0,59.70229498542507,54.70985441367615,20.383768291637654,12.840021256528598,16.611894774083126,8.095880683313212,4.948491579979879,3.147389103333333,1.7740882456443177,1.412970332273232,mp-12317,12317
744,Ca2Co2O5,3.1768651,-2.114430003333333,4.3384935,4,1,113.14022872184984,107.3666538467118,51.93440715889188,40.80555596284231,46.369981560867096,157.1722217616333,111.62594379799084,45.54627796364244,2.847231474929164,1.412970332273232,mp-1371368,1371368
745,KZnN,0.95709675,-0.02955449350000035,0.0001392,0,0,41.00356418823763,31.43539038586987,15.669734019660181,2.536732989911041,9.10323350478561,13.641125116666666,7.853849506666666,5.787275609999999,2.405675707571575,1.412970332273232,mp-1029336,1029336
746,BeNi,7.20320726,-0.46828125249999974,0.0578313,1,1,181.50658043445208,181.50658043445202,70.41815227878881,-111.41071466093192,-20.496281191071553,157.1722217616333,111.62594379799084,45.54627796364244,2.847231474929164,1.412970332273232,mp-1033,1033
747,MgZn2,3.62094385,-0.1296061591666667,8.775e-06,0,0,63.76727912956088,63.73093070629667,28.161108565870716,26.821068484143538,27.49108852500713,157.1722217616333,111.62594379799084,45.54627796364244,2.847231474929164,1.412970332273232,mp-1124,1124
748,Sr3Fe2S2O5,2.67832797,-2.075073025104166,8.0011461,2,1,82.32901694021324,75.63499101872611,19.065968579757563,607.1951506224735,313.1305596011155,157.1722217616333,111.62594379799084,45.54627796364244,2.847231474929164,1.412970332273232,mp-1046611,1046611
749,KAgO,0.15517292,-0.5889345215555549,1.65e-05,0,0,41.900692959110614,41.900692959110614,-40.936578849333195,245.97974198637453,102.52158156852067,157.1722217616333,111.62594379799084,45.54627796364244,2.847231474929164,1.412970332273232,mp-1009048,1009048
750,Sr3RuN3,3.81071889,-0.6887017599999997,1.97189235,2,1,61.843699051877834,61.319603162208836,35.238245826656446,34.93737076419668,35.08780829542656,157.1722217616333,111.62594379799084,45.54627796364244,2.847231474929164,1.412970332273232,mp-1029750,1029750
751,MgSnN2,5.13575513,-0.533702746875,0.000163825,0,0,120.46354005683745,120.11627669391623,61.33973099426678,60.8499172019279,61.09482409809734,10.50678744,4.16936183,6.33742561,2.5174244000565342,1.530601282829725,mp-1029791,1029791
752,AlGaN2,4.64480507,-1.105076054375,0.0,0,0,184.17279997157837,184.14617185447057,122.36263302940732,101.00141529062334,111.68202416001533,9.5947382,4.373338319999999,5.221399880000001,2.285038266638001,0.48011136229004203,mp-1008556,1008556
753,NbAlRu2,7.80245977,-0.6469519049999999,0.0084929,0,0,230.51913400131323,230.5191340013132,116.91129264382934,116.6765457623198,116.79391920307458,157.1722217616333,111.62594379799084,45.54627796364244,2.847231474929164,1.412970332273232,mp-11537,11537
754,InCu2,8.86886655,0.09884737666666688,1.35e-05,0,0,93.52440907220354,93.15204721225624,-15.080893665375326,42.07669390831305,13.49790012146886,157.1722217616333,111.62594379799084,45.54627796364244,2.847231474929164,1.412970332273232,mp-12118,12118
755,HfPd3,6.0828782,-0.8830999568749993,1.9675e-05,0,0,178.5190566249463,178.51429221683082,85.4270706831926,83.80984172672515,84.61845620495887,157.1722217616333,111.62594379799084,45.54627796364244,2.847231474929164,1.412970332273232,mp-11453,11453
756,FeP,9.16314288,-0.5984293366666673,0.397902875,4,1,183.20353044778383,135.25481198171548,131.55578565350126,105.61905955949464,118.58742260649795,157.1722217616333,111.62594379799084,45.54627796364244,2.847231474929164,1.412970332273232,mp-1005,1005
757,BW2,7.79395943,-0.26186117805555637,0.0006164,0,0,329.83369133883974,329.8094430667138,152.8217077764368,151.68540793808057,152.25355785725867,157.1722217616333,111.62594379799084,45.54627796364244,2.847231474929164,1.412970332273232,mp-1113,1113
758,ZnGeN2,3.65706385,-0.30473415874999965,3.8125e-05,0,0,150.02405705494604,147.35384059570748,75.18380161569287,73.57566873252189,74.37973517410738,10.533381166666665,4.616116689999999,5.917264476666666,2.432542800582688,1.412970332273232,mp-1029779,1029779
759,BaPd2,4.22783624,-0.5777919516666667,0.0028811,0,0,70.84626504254277,70.84626504254275,26.44008895515477,24.13978211566627,25.28993553541052,157.1722217616333,111.62594379799084,45.54627796364244,2.847231474929164,1.412970332273232,mp-1687,1687
760,CoP2,8.23318112,-0.5329589272222227,5.5e-06,0,0,164.62969426228963,161.70110246006885,130.44943974765494,113.15027978349563,121.79985976557529,34.95518169,10.016518403333333,24.938663286666667,4.993862561851965,1.412970332273232,mp-14285,14285
761,MnAlRh2,6.91259405,-0.6837290594827579,4.0365073,3,2,184.44847684195895,184.44847684181698,96.35364650490055,90.65813810806888,93.50589230648472,157.1722217616333,111.62594379799084,45.54627796364244,2.847231474929164,1.412970332273232,mp-10894,10894
762,VRh,7.0495928,-0.3605693849999998,0.0077872,0,0,233.08801646384407,233.00595727539726,103.87790503385753,87.69375564010156,95.78583033697954,157.1722217616333,111.62594379799084,45.54627796364244,2.847231474929164,1.412970332273232,mp-1251,1251
763,HfSi2,8.34564161,-0.515201400000001,3.98e-05,0,0,133.86776703154126,129.9704689793559,96.09209351264425,91.00981117167838,93.55095234216131,157.1722217616333,111.62594379799084,45.54627796364244,2.847231474929164,1.412970332273232,mp-1069,1069
764,TiAu4,6.14237248,-0.2789960706666662,0.0001397,0,0,143.86911951278364,143.69952270469594,44.90507338011814,33.10916179301533,39.007117586566736,157.1722217616333,111.62594379799084,45.54627796364244,2.847231474929164,1.412970332273232,mp-12635,12635
765,MoN2,3.73360093,-0.09707402000000087,0.00017185,0,0,181.0359518668573,154.1917330144878,58.97229798190304,26.797895420706276,42.88509670130466,157.1722217616333,111.62594379799084,45.54627796364244,2.847231474929164,1.412970332273232,mp-1402363,1402363
766,Y6FeSb2,4.79220836,-0.6119180111111109,0.4591807,1,1,59.19591438374763,58.59959604868476,35.34950871125092,33.722264841094656,34.53588677617279,157.1722217616333,111.62594379799084,45.54627796364244,2.847231474929164,1.412970332273232,mp-11202,11202
767,ScAgO2,2.05572858,-2.6267450791666667,0.00184535,0,0,126.71292319407715,119.78377815972934,51.82220206604845,25.795674869339717,38.808938467694084,13.811580329997733,7.967585603331067,5.8439947266666685,2.4174355682554745,1.412970332273232,mp-11022,11022
768,Li3PrBi2,3.91559435,-0.6929537441666666,3.39e-05,0,0,37.422817483002945,37.38959324496114,29.78075249490281,24.064776405031253,26.922764449967033,157.1722217616333,111.62594379799084,45.54627796364244,2.847231474929164,1.412970332273232,mp-1018770,1018770
769,SrNiGe2,5.10443782,-0.5195490504166669,0.0018157,0,0,71.31752587484488,69.38768961475297,37.86801967312963,36.47295475874252,37.17048721593608,157.1722217616333,111.62594379799084,45.54627796364244,2.847231474929164,1.412970332273232,mp-13513,13513
770,PdF3,-0.64617005,-1.5772139131249996,0.9758834,2,1,36.804179007692774,28.52969549989682,23.861105471439032,14.44393461306198,19.152520042250508,157.1722217616333,111.62594379799084,45.54627796364244,2.847231474929164,1.412970332273232,mp-13679,13679
771,NbSe2,3.77426631,-1.1247414048958326,0.0196161,0,0,35.288936974709415,13.909780460547998,24.48152927418119,7.062798974412314,15.772164124296753,157.1722217616333,111.62594379799084,45.54627796364244,2.847231474929164,1.412970332273232,mp-10228,10228
772,Sr3Al3N5,4.05483295,-1.2421417877272736,0.0005064,0,0,104.60640035044563,103.00982968310569,57.75815826985374,46.50689381523099,52.132526042542366,11.565952163333334,6.172774386666667,5.3931777766666675,2.3223216350597666,1.412970332273232,mp-1029733,1029733
773,YSi2,6.99298746,-0.5005530138888888,0.00013215,0,0,85.49633037253354,84.17804608637584,29.4972002099262,23.103546102245723,26.30037315608596,157.1722217616333,111.62594379799084,45.54627796364244,2.847231474929164,1.412970332273232,mp-12769,12769
774,BaMgF4,-1.4448363,-3.992940358333333,0.0002448,0,0,60.33396068173517,54.384102252169924,31.06870877671135,27.642512161567392,29.35561046913937,9.599238850411032,7.199682010412491,2.3995568399985423,1.5490503026043223,0.9354528433545463,mp-14568,14568
775,Li,-0.23690659,0.0025241966666667004,0.00110705,0,0,13.833700437365989,13.831061129668925,6.186266098098077,5.985180414744984,6.085723256421531,157.1722217616333,111.62594379799084,45.54627796364244,2.847231474929164,1.412970332273232,mp-10173,10173
776,Zr2SN2,5.21253457,-1.889581994625,0.000769,0,0,159.98504194145934,158.54988352040476,69.21837287034438,67.75495513743962,68.486664003892,24.4717689966958,14.931975273362468,9.539793723333332,3.088655649847249,1.412970332273232,mp-11583,11583
777,HfPt,6.55589832,-0.9758084349999994,4.65e-05,0,0,184.7918229608325,184.79182296083255,34.96772835803237,27.75845029330196,31.36308932566716,157.1722217616333,111.62594379799084,45.54627796364244,2.847231474929164,1.412970332273232,mp-11455,11455
778,Li3AlN2,3.00129695,-0.9676316629166669,0.0,0,0,104.4931854864541,104.49318548645411,102.23545856335251,99.60123401060544,100.91834628697897,9.65256530333334,5.050115543333334,4.602449760000005,2.1453320861815324,1.412970332273232,mp-13944,13944