,formula_pretty,efermi,formation_energy_per_atom,total_magnetization_normalized_formula_units,num_magnetic_sites,num_unique_magnetic_sites,k_voigt,k_reuss,g_voigt,g_reuss,g_vrh,e_total,e_ionic,e_electronic,n,e_ij_max,material_id,b
1859,Ag2CO3,1.709619,-1.0936600005555561,0.00068785,0,0,63.77546637588231,26.587923819494794,18.581224379647473,8.23732712322954,13.409275751438507,11.750873349999999,7.415971736666665,4.334901613333333,2.0820426540619508,1.412970332273232,mp-4691,4691
1860,CsI4,0.71583244,-0.978285087086207,0.0001452,0,0,5.2374051217156445,4.866957188058336,2.4422107870136975,1.6455775104098633,2.0438941487117805,14.860510973333334,10.343385333333334,4.51712564,2.1253530624345687,1.412970332273232,mp-571011,571011
1861,CdCuF4,0.32034805,-2.155964753333333,0.99998825,2,1,86.24961611770121,84.52294548745107,31.321846565893388,30.01168678727762,30.666766676585503,7.8615207203454105,4.833967499991608,3.0275532203538025,1.7399865575210063,1.412970332273232,mp-9075,9075
1862,LiCu2Sn,6.51673879,-0.18911480958333327,0.0004513,0,0,77.01713793489789,71.52809151152582,45.416904024557944,40.75135028998903,43.084127157273485,157.1722217616333,111.62594379799084,45.54627796364244,2.847231474929164,1.412970332273232,mp-569834,569834
1863,Ba2Hg,1.98079477,-0.38399359166666674,0.0032355,0,0,15.959871755921414,15.505922252151064,9.468363139526838,9.311888721035704,9.390125930281272,157.1722217616333,111.62594379799084,45.54627796364244,2.847231474929164,1.412970332273232,mp-8094,8094
1864,Zn(PtO2)3,4.94714268,-1.1067462640000003,0.0008014,0,0,193.66565047504986,193.187937717117,76.2515313060847,54.3676800043817,65.3096056552332,18.59989980999886,2.8412329199990007,15.758666889999859,3.9697187419261657,1.412970332273232,mp-8207,8207
1865,Zn(GaO2)2,1.84772472,-2.176957137857143,1.375e-05,0,0,168.53079326838312,168.53079326838318,83.15295500102908,71.99935884640355,77.57615692371633,11.777160833332696,7.556972433332926,4.220188399999771,2.054309713748093,1.412970332273232,mp-5794,5794
1866,Na6CoO4,2.11913654,-1.4472654147100315,3.3175e-05,4,1,53.14269090301693,53.14061111602307,25.962154322464805,24.85302994873992,25.407592135602364,157.1722217616333,111.62594379799084,45.54627796364244,2.847231474929164,1.412970332273232,mp-759174,759174
1867,TiCo,6.31056825,-0.40051704916666697,0.8779597,1,1,163.17202584615768,163.17202584615765,61.41791558871634,61.41401994154617,61.415967765131256,157.1722217616333,111.62594379799084,45.54627796364244,2.847231474929164,1.412970332273232,mp-823,823
1868,VFeO4,0.77081206,-2.066527405,0.0,2,1,94.21661446889382,84.97854175183224,51.67071011090095,49.679278041590514,50.67499407624573,157.1722217616333,111.62594379799084,45.54627796364244,2.847231474929164,1.412970332273232,mp-18949,18949
1869,BeAlRh2,7.55110627,-0.8688942487500002,0.0004836,0,0,198.57646435840837,198.57646435840837,104.0589539642748,103.3222540918024,103.6906040280386,157.1722217616333,111.62594379799084,45.54627796364244,2.847231474929164,1.412970332273232,mp-862287,862287
1870,AlInO3,5.81007947,-2.6771471329999996,9.285e-05,0,0,184.2667012497366,184.2251802260723,89.9401358123796,86.45832097362955,88.19922839300457,157.1722217616333,111.62594379799084,45.54627796364244,2.847231474929164,1.412970332273232,mp-754157,754157
1871,NiSeO4,2.10391879,-1.1890706803906248,2.00021815,2,1,73.96425297577717,64.98389763522916,43.25714433038467,40.42009540775691,41.83861986907079,7.424127350000002,3.7964810200000016,3.6276463300000006,1.9046381099831013,1.412970332273232,mp-18817,18817
1872,AsRh,7.34488701,-0.47695861625000013,1.4925e-05,0,0,156.72358311275926,155.81040110251755,61.75114675604118,59.458740460668494,60.60494360835484,157.1722217616333,111.62594379799084,45.54627796364244,2.847231474929164,1.412970332273232,mp-22079,22079
1873,SrSiN2,4.63609269,-1.3568023441666668,1.74e-05,0,0,100.48085578336386,91.17031972294971,38.10032158061382,26.138374596337854,32.11934808847584,17.144391703333334,12.375925953333336,4.76846575,2.183681696126979,1.412970332273232,mp-4549,4549
1874,Na3VO4,-0.52788979,-2.2947938312068974,0.00063955,0,0,45.542443248642925,45.20031191926819,17.634401661672847,17.36308518719099,17.498743424431918,5.331258089317972,2.6860803393152435,2.6451777500027283,1.6264002428685038,1.1902299712350664,mp-755436,755436
1875,Fe2Si,8.64929157,-0.35658953166666646,2.0004171,4,3,236.58815305658268,236.45903917443349,122.40038652881371,115.65119454167258,119.02579053524315,157.1722217616333,111.62594379799084,45.54627796364244,2.847231474929164,1.412970332273232,mp-22787,22787
1876,Ca3Cd2,2.36967648,-0.28833979249999986,0.00409455,0,0,28.675006608954554,28.65835093571164,15.119943124411597,14.440054089149303,14.779998606780449,157.1722217616333,111.62594379799084,45.54627796364244,2.847231474929164,1.412970332273232,mp-18167,18167
1877,TiGaPt,6.79151826,-0.8137034286111108,0.00371945,0,0,165.09426423553714,160.11114657374534,61.73185556194692,51.83821292038738,56.78503424116715,157.1722217616333,111.62594379799084,45.54627796364244,2.847231474929164,1.412970332273232,mp-22662,22662
1878,BaCuO2,3.03882728,-1.9919656037499998,0.0008952,0,0,82.31901538586368,72.5172041171759,35.64130311309089,31.050631334146864,33.34596722361888,157.1722217616333,111.62594379799084,45.54627796364244,2.847231474929164,1.412970332273232,mp-997034,997034
1879,YNiSn,6.68832652,-0.6857084055555553,5.225e-06,0,0,91.00246828066614,90.01371633584233,43.76516947882668,40.493855251653194,42.12951236523993,157.1722217616333,111.62594379799084,45.54627796364244,2.847231474929164,1.412970332273232,mp-22617,22617
1880,LiTl,4.86984962,-0.22958965833333345,0.0003261,0,0,31.43822809791423,31.438228097914234,17.550543939505094,15.223124487002373,16.386834213253735,157.1722217616333,111.62594379799084,45.54627796364244,2.847231474929164,1.412970332273232,mp-934,934
1881,Ni(RhSe2)2,5.59651277,-0.6063128241964283,0.0001596,0,0,89.3511135132422,85.3989493312248,34.054953141139016,29.63434828966039,31.844650715399702,157.1722217616333,111.62594379799084,45.54627796364244,2.847231474929164,1.412970332273232,mp-4852,4852
1882,CdCu2O3,3.59442194,-1.0439340958333332,0.00091845,0,0,83.97105449897417,62.82799231141645,28.749515848714328,20.668628805494496,24.709072327104412,157.1722217616333,111.62594379799084,45.54627796364244,2.847231474929164,1.412970332273232,mp-754978,754978
1883,MgGeN2,3.48835345,-0.758754960000001,2.3625e-05,0,0,147.2476685641341,146.8302612632722,85.22022198049861,83.21482768135162,84.21752483092511,9.420529789999998,4.393924603333333,5.026605186666667,2.2420091852324484,1.2643280363101976,mp-7798,7798
1884,SiO2,-0.1488048,-3.2642499024999996,0.0,0,0,13.088585501587156,12.651904160810856,47.36052811281055,38.888379761294864,43.12445393705271,4.0368359,1.798102823333333,2.238733076666666,1.496239645466817,0.001205000000000001,mp-6945,6945
1885,Si2NiP3,6.9380343,-0.2670704533333321,0.0009371,0,0,105.26153310255432,104.81623180125301,58.458748108610465,53.090676564640994,55.774712336625726,157.1722217616333,111.62594379799084,45.54627796364244,2.847231474929164,1.412970332273232,mp-28945,28945
1886,MnFe2Si,8.05121851,-0.3191968019827591,3.0009148,3,2,232.86794441469544,232.86794441348644,117.1557973555422,77.01543684482911,97.08561710018566,157.1722217616333,111.62594379799084,45.54627796364244,2.847231474929164,1.412970332273232,mp-5529,5529
1887,GaAgS2,2.313834,-0.7603199401041669,3.955e-05,0,0,60.64344198045569,60.44195309907016,22.944456569569322,20.120251684449826,21.532354127009576,10.193117742968946,2.4371700010131674,7.755947741955777,2.784950222527465,0.2645519987459877,mp-5342,5342
1888,NbCo2,5.74761458,-0.1443460900000003,0.04702815,0,0,231.20303388899617,231.20303388736122,112.23317404753172,109.45661863212325,110.84489633982749,157.1722217616333,111.62594379799084,45.54627796364244,2.847231474929164,1.412970332273232,mp-670,670
1889,ZnCu,6.86618734,-0.09071782500000003,0.0001363,0,0,114.40115003587299,114.40115003587265,52.539695726656994,11.371118429169783,31.95540707791339,157.1722217616333,111.62594379799084,45.54627796364244,2.847231474929164,1.412970332273232,mp-987,987
1890,Ca(AlSi)2,5.55798565,-0.2711350359999997,0.000888,0,0,62.96075304834532,60.60260234506834,41.49964866586927,39.687234541568415,40.593441603718844,157.1722217616333,111.62594379799084,45.54627796364244,2.847231474929164,1.412970332273232,mp-7704,7704
1891,Ni3O4,4.96930009,-1.0467500692857143,1e-07,2,2,147.1674659051407,144.2100111362274,79.65894971259968,76.92312417667868,78.29103694463919,10.299833754640947,4.19322110434531,6.106612650295638,2.4711561363652517,1.412970332273232,mp-656887,656887
1892,LiVF4,-0.12643999,-3.2151286713888894,2.0000007,2,1,62.38624354775521,59.47034183014353,36.563648460901085,29.943578374720808,33.253613417810946,157.1722217616333,111.62594379799084,45.54627796364244,2.847231474929164,1.412970332273232,mp-754895,754895
1893,SrIn4Ni,6.7084313,-0.2970275344444448,0.0009519,0,0,47.42326991809608,47.2105690258995,27.926462623376754,26.390677044535174,27.158569833955966,157.1722217616333,111.62594379799084,45.54627796364244,2.847231474929164,1.412970332273232,mp-20479,20479
1894,VPt3,7.68906989,-0.43467109500000056,1.2339779,1,1,241.37914214469816,241.3791421446981,113.35845764507327,106.7599479432867,110.05920279417998,157.1722217616333,111.62594379799084,45.54627796364244,2.847231474929164,1.412970332273232,mp-372,372
1895,MgGeO3,3.43598874,-2.539973932999999,0.00017615,0,0,166.18744372067542,162.16665100454435,96.14299183807991,89.20435918245626,92.67367551026808,11.406603326661667,7.738016769994999,3.6685865566666673,1.915355464833269,1.412970332273232,mp-3759,3759
1896,TiS2,4.30312135,-1.587913804027778,0.000256025,0,0,47.058802389430994,47.058802389430994,31.61989857979174,30.444394679999476,31.032146629895607,157.1722217616333,111.62594379799084,45.54627796364244,2.847231474929164,1.412970332273232,mp-9027,9027
1897,LiCo3O4,3.57806305,-1.408294987291666,8.3557586,3,2,144.49062898123734,139.38122071685837,77.1935330521345,67.64484755850725,72.41919030532088,157.1722217616333,111.62594379799084,45.54627796364244,2.847231474929164,1.412970332273232,mp-755398,755398
1898,Fe3Ge,6.94754606,-0.09958344625000048,6.4680918,3,1,177.4913359954103,177.49133599541028,77.46094420091895,58.65389110747741,68.05741765419818,157.1722217616333,111.62594379799084,45.54627796364244,2.847231474929164,1.412970332273232,mp-20344,20344
1899,Li2CuS2,3.32464815,-0.9931388745833338,0.2587258,1,1,46.87446824367458,34.50577961833902,19.723582171222127,11.262958148228698,15.493270159725412,157.1722217616333,111.62594379799084,45.54627796364244,2.847231474929164,1.412970332273232,mp-752881,752881
1900,In2HgTe4,3.41245074,-0.5361674007142854,0.0006145,0,0,19.916179107795354,19.725251801172675,13.001767120738533,11.256013191082086,12.128890155910309,15.809946763333334,4.668971826666667,11.140974936666666,3.337809901217663,0.1539635844932171,mp-19765,19765
1901,CrS2,4.09055787,-0.8698202420833342,2.0195935,1,1,42.00588751849573,16.933190665065478,23.149590803742832,12.471324428471902,17.810457616107367,157.1722217616333,111.62594379799084,45.54627796364244,2.847231474929164,1.412970332273232,mp-755263,755263
1902,Sr,1.68808401,0.013056413333333294,0.001281,0,0,11.543946882984924,11.543946882984923,9.13276415671736,3.3325607689233205,6.232662462820341,157.1722217616333,111.62594379799084,45.54627796364244,2.847231474929164,1.412970332273232,mp-95,95
1903,CrP4,8.47275225,-0.28152649566666665,3.35e-06,0,0,127.4765329421553,121.07777607474164,106.09074374020662,93.68208072191474,99.88641223106069,157.1722217616333,111.62594379799084,45.54627796364244,2.847231474929164,1.412970332273232,mp-7302,7302
1904,ZrGa3,4.61933015,-0.48116222062500036,0.0028777,0,0,97.43263729619326,96.76885436244288,75.56905948181777,68.4673293397267,72.01819441077224,157.1722217616333,111.62594379799084,45.54627796364244,2.847231474929164,1.412970332273232,mp-30685,30685
1905,Li13Sn5,3.97033391,-0.39301188268518555,0.0001848,0,0,29.659316222601223,29.598221575667996,29.727882833834318,18.255451227288475,23.991667030561395,157.1722217616333,111.62594379799084,45.54627796364244,2.847231474929164,1.412970332273232,mp-30769,30769
1906,BN,2.15862988,-1.4613800295833332,0.0002662,0,0,200.5942874214923,4.8401970921938124,145.05160274341915,3.991494510377506,74.52154862689832,4.67887232666832,1.1031378833349874,3.5757344433333333,1.8909612485012308,1.412970332273232,mp-984,984
1907,SrNbO3,4.98693104,-3.1753473623333326,0.0006686,0,0,173.14219969671336,173.14219969671333,86.25499235232131,74.91300304530633,80.58399769881382,157.1722217616333,111.62594379799084,45.54627796364244,2.847231474929164,1.412970332273232,mp-7006,7006
1908,Al2O3,5.17736959,-3.3545392195,0.0,0,0,191.67888451411903,186.42330828691328,131.5203601588217,119.32105556155864,125.42070786019016,157.1722217616333,111.62594379799084,45.54627796364244,2.847231474929164,1.412970332273232,mp-755175,755175
1909,TiCl3,2.09347291,-2.0714121008333333,0.00011545,0,0,8.983295369427857,1.9766322115590778,4.982123720617045,0.659880017141106,2.8210018688790752,157.1722217616333,111.62594379799084,45.54627796364244,2.847231474929164,1.412970332273232,mp-571143,571143
1910,Nb3Si,6.08203106,-0.42094953406250113,2.97625e-05,0,0,184.34763077475225,183.9794196066646,76.16152679780548,71.22945654210466,73.69549166995506,157.1722217616333,111.62594379799084,45.54627796364244,2.847231474929164,1.412970332273232,mp-17848,17848
1911,AlPO4,0.41488572,-3.1115932366666663,0.0003397,0,0,29.61209275609205,29.273102790706144,35.70692379431295,32.37512457380316,34.04102418405806,4.789992210000507,2.3197203333338403,2.4702718766666667,1.5717098576603339,0.2429599893920755,mp-3955,3955
1912,SiO2,4.74999298,-3.207309701666666,5.035e-05,0,0,49.32513280399472,23.26595074041932,29.60452094300233,8.500979301926446,19.05275012246439,157.1722217616333,111.62594379799084,45.54627796364244,2.847231474929164,1.412970332273232,mp-557873,557873
1913,Al2ZnSe4,2.00639463,-1.1007739499107143,0.0016361,0,0,38.11388889321119,38.064211474293586,26.017249310892723,22.46035742413143,24.238803367512077,9.178696063337343,2.889568883337343,6.289127179999999,2.5078132266977136,0.08111531507450709,mp-7907,7907
1914,FeOF,1.76611698,-2.1116773225000003,0.0,2,1,137.24491133957127,128.13774067062238,59.397325156642474,52.105106443726314,55.7512158001844,14.66827802,10.21742222,4.4508558,2.1097051452750453,1.1877260321303058,mp-758560,758560
1915,AlSiTe3,4.11685656,-0.5212049669999999,0.0003449,0,0,24.720315013194227,5.730036084710835,16.32757719235024,2.72347923930184,9.52552821582604,13.001395346666667,3.6892534033333337,9.312141943333335,3.051580237079362,1.412970332273232,mp-31220,31220
1916,AlRu,9.20960075,-0.6734773924999997,0.0029631,0,0,202.21080770459335,202.21080770459332,104.91305091859368,101.3227259771571,103.1178884478754,157.1722217616333,111.62594379799084,45.54627796364244,2.847231474929164,1.412970332273232,mp-542569,542569
1917,Ti3Al,6.23570683,-0.1604740549999999,1.976298,3,2,110.2172018103209,110.21720181032077,41.67275615647079,22.013483986307925,31.843120071389357,157.1722217616333,111.62594379799084,45.54627796364244,2.847231474929164,1.412970332273232,mp-999027,999027
1918,Al2HgS4,2.15172338,-1.1077082624999994,1.89e-05,0,0,37.952393811468234,37.82508218331192,23.34185901956209,19.724576707183523,21.533217863372805,10.617375053333335,4.913627760000001,5.7037472933333335,2.388251932550947,0.31717282670493707,mp-7906,7906
1919,BaPt,3.57513151,-0.7490768524999996,3.13e-05,0,0,50.27784075815152,48.796797596650066,19.581851099721636,18.444987201285276,19.013419150503456,157.1722217616333,111.62594379799084,45.54627796364244,2.847231474929164,1.412970332273232,mp-31498,31498
1920,FePd,5.18495313,-0.06369684000000042,3.2865965,2,2,162.6009230379778,162.2432862487922,82.27933017503409,69.7779988209559,76.028664497995,157.1722217616333,111.62594379799084,45.54627796364244,2.847231474929164,1.412970332273232,mp-2831,2831
1921,CrNi2,8.0020981,-0.01845198333333305,0.0195075,0,0,228.38089344677493,228.2068527154389,123.24738067158725,101.7064220478657,112.47690135972647,157.1722217616333,111.62594379799084,45.54627796364244,2.847231474929164,1.412970332273232,mp-784631,784631
1922,LiVF4,-0.63746513,-3.1966882588888894,1.99987295,2,1,61.22826746934845,58.362349314325165,37.285199960754014,31.287562320911956,34.28638114083299,157.1722217616333,111.62594379799084,45.54627796364244,2.847231474929164,1.412970332273232,mp-759459,759459
1923,TiBeRh2,6.71765006,-0.7918117820833332,0.0001347,0,0,203.6458885196691,203.6458885196691,93.8476109681167,93.45558124976516,93.65159610894094,157.1722217616333,111.62594379799084,45.54627796364244,2.847231474929164,1.412970332273232,mp-866143,866143
1924,LiScPt2,5.18434095,-0.9624167845833336,0.0003169,0,0,113.99667572449704,113.99667572449702,-2.7886090018476124,148.45024876596304,72.83081988205771,157.1722217616333,111.62594379799084,45.54627796364244,2.847231474929164,1.412970332273232,mp-865228,865228
1925,CuAs2,5.51269953,0.0846026266666667,1.55e-06,0,0,87.46693484729168,86.67077734908587,26.13691375442669,19.89488367667517,23.015898715550932,157.1722217616333,111.62594379799084,45.54627796364244,2.847231474929164,1.412970332273232,mp-21859,21859
1926,Li2TiO3,1.94520889,-2.9819544033333343,5.345e-05,0,0,112.43716765302946,107.97708052999978,80.36714004041126,65.51310083544669,72.94012043792898,157.1722217616333,111.62594379799084,45.54627796364244,2.847231474929164,1.412970332273232,mp-2931,2931
1927,ZrAl5Ni2,7.94716515,-0.5905424937500001,0.0015892,0,0,120.37782284282181,120.37251613138022,84.26013846707329,82.84436417007167,83.55225131857247,157.1722217616333,111.62594379799084,45.54627796364244,2.847231474929164,1.412970332273232,mp-30183,30183
1928,Li6WN4,1.49682891,-0.9147499963636366,0.00557455,0,0,85.05852364204914,84.29561498860826,68.00994497413969,67.61129689044765,67.81062093229366,9.506633643333332,4.69989817,4.806735473333333,2.192426845605876,1.412970332273232,mp-3503,3503
1929,Fe3Ge,6.92716313,-0.09537692000000053,6.4420798,6,1,168.83009222611443,168.42074190667137,70.36456156797568,65.16504914567952,67.7648053568276,157.1722217616333,111.62594379799084,45.54627796364244,2.847231474929164,1.412970332273232,mp-21078,21078
1930,InSb,4.41408198,-0.20905340000000017,0.0020371,0,0,35.393211857850076,35.393211857850076,20.092957099476372,17.519614223355322,18.80628566141585,25.167372516666713,2.3315171366666685,22.835855380000044,4.778687621094315,0.21220999999999998,mp-20012,20012
1931,K(NiS)2,4.92003172,-0.8011487098500005,0.9448451,2,1,30.267203655896157,28.751896691370508,22.619289033868274,20.063921045378862,21.341605039623566,157.1722217616333,111.62594379799084,45.54627796364244,2.847231474929164,1.412970332273232,mp-558518,558518
1932,ScSnRh2,8.0316785,-0.8764835499999997,0.1789619,0,0,154.43045154757726,154.43045154757752,11.224987730454496,310.56226216843817,160.89362494944632,157.1722217616333,111.62594379799084,45.54627796364244,2.847231474929164,1.412970332273232,mp-862623,862623
1933,Al2O3,5.86178603,-3.3914156911249997,0.0,0,0,197.357591366849,196.44608363092436,118.79719536345247,102.90655452866042,110.85187494605645,157.1722217616333,111.62594379799084,45.54627796364244,2.847231474929164,1.412970332273232,mp-759943,759943
1934,ZnSiAs2,3.55741743,-0.19679864374999934,0.0,0,0,65.89317232306706,65.87658934429022,44.11166150369343,40.26685235237721,42.18925692803532,15.28680552666735,1.7629051266673514,13.5239004,3.6774856084014798,0.1986759474343312,mp-3595,3595
1935,K3B17,2.51470122,0.09214177625833316,0.07016745,0,0,102.90156044951966,89.4280928182592,82.0562402656705,71.69508203405016,76.87566114986032,157.1722217616333,111.62594379799084,45.54627796364244,2.847231474929164,1.412970332273232,mp-684709,684709