,formula_pretty,efermi,formation_energy_per_atom,total_magnetization_normalized_formula_units,num_magnetic_sites,num_unique_magnetic_sites,k_voigt,k_reuss,g_voigt,g_reuss,g_vrh,e_total,e_ionic,e_electronic,n,e_ij_max,material_id,b
2091,SnF2,1.76901893,-2.5696585158333334,0.002076325,0,0,14.12790761236138,14.126101033925764,9.460877403993873,7.467438250740123,8.464157827366998,15.202486890000003,11.882671256666669,3.319815633333333,1.8220361229496338,0.043000000000000003,mp-7457,7457
2092,MgSnRh2,8.234028,-0.6400820312499995,0.0012093,0,0,148.80835838000354,148.80835838000345,62.38633501341382,45.886888849087384,54.1366119312506,157.1722217616333,111.62594379799084,45.54627796364244,2.847231474929164,1.412970332273232,mp-866073,866073
2093,Si2Mo,11.14980766,-0.4695875122222222,2.3333333333333333e-07,0,0,207.7709185046367,206.8062707178059,149.45219408828342,148.22884899603096,148.8405215421572,57.797472480003364,29.238737930003367,28.55873455,5.344037289353434,0.6614099999999999,mp-8938,8938
2094,Si3P,9.74863534,0.5959328991666668,0.0003925,0,0,89.31461512847655,89.31461512847655,-23.622820333749747,16.111297785720364,-3.7557612740146915,157.1722217616333,111.62594379799084,45.54627796364244,2.847231474929164,1.412970332273232,mp-972741,972741
2095,Nb4CoP,6.14197749,-0.43130135888888904,9.45e-06,0,0,197.37322239606888,197.32743394775838,98.3733904485352,98.3030838714389,98.33823715998705,157.1722217616333,111.62594379799084,45.54627796364244,2.847231474929164,1.412970332273232,mp-21447,21447
2096,PbWO4,2.24775316,-2.000067079166667,1.105e-05,0,0,67.76760504559141,66.75472947237138,23.57038347589697,20.936353271180803,22.253368373538887,27.32331632666667,22.62154828333334,4.701768043333334,2.1683560693145703,0.874999238110863,mp-689140,689140
2097,PbI2,1.00207484,-0.9205233533333335,0.0015092,0,0,5.451388676327976,1.7378365159867684,3.616388535561102,0.8767141885266149,2.246551362043858,157.1722217616333,111.62594379799084,45.54627796364244,2.847231474929164,1.412970332273232,mp-22883,22883
2098,InTe,5.53414702,-0.4878882587499995,2.02e-05,0,0,21.135363617065792,19.66765220484781,11.974882480757612,11.360525823173667,11.66770415196564,157.1722217616333,111.62594379799084,45.54627796364244,2.847231474929164,1.412970332273232,mp-20320,20320
2099,BaCO3,0.27113175,-2.6337136009999993,4.275e-05,0,0,53.510935782011124,51.59393597606203,17.11788973670814,11.405070191349134,14.261479964028638,157.1722217616333,111.62594379799084,45.54627796364244,2.847231474929164,1.412970332273232,mp-674478,674478
2100,Ti2N,6.99594053,-1.4377696338888886,0.00107515,0,0,204.1107389398884,203.723168212382,126.89805588930308,107.4208567461366,117.15945631771984,157.1722217616333,111.62594379799084,45.54627796364244,2.847231474929164,1.412970332273232,mp-8282,8282
2101,Ba(MgPb)2,4.39376507,-0.37572263700000014,6.7e-06,0,0,32.007107460001166,32.004206123492075,18.908803274631133,18.514148523077402,18.711475898854268,157.1722217616333,111.62594379799084,45.54627796364244,2.847231474929164,1.412970332273232,mp-20452,20452
2102,K2WCl6,1.61302037,-1.7578830606666667,1.9986052,1,1,12.231978261886187,12.231978261886185,4.898244864076427,3.3092785845771897,4.103761724326809,157.1722217616333,111.62594379799084,45.54627796364244,2.847231474929164,1.412970332273232,mp-568914,568914
2103,Cs2TiCl6,-0.71263014,-2.2443302487994887,0.0002523,0,0,8.77051547185394,8.770515471853939,4.754103519615309,4.6962300499642,4.725166784789755,8.653849300003928,5.674528926670598,2.9793203733333296,1.7260707903598071,1.412970332273232,mp-27828,27828
2104,ScGa3,4.33781615,-0.5006723293749991,0.0006952,0,0,72.66926483174107,72.66926483174107,34.47690431037142,34.1401098578302,34.30850708410081,157.1722217616333,111.62594379799084,45.54627796364244,2.847231474929164,1.412970332273232,mp-932,932
2105,MgFeRh2,5.49059682,-0.29936372000000055,4.1012775,3,2,155.1751483372466,155.17514833724658,75.57652223352946,69.98787723769556,72.78219973561251,157.1722217616333,111.62594379799084,45.54627796364244,2.847231474929164,1.412970332273232,mp-865187,865187
2106,TiCl2,3.79288658,-1.8052848177777783,1.9922387,1,1,9.575798041993917,3.113754528469001,8.107098506122794,0.43510846712070705,4.271103486621751,157.1722217616333,111.62594379799084,45.54627796364244,2.847231474929164,1.412970332273232,mp-28116,28116
2107,ScNbRu2,6.82406713,-0.5343551287499988,0.0006391,0,0,194.7994286732423,194.79942867324232,92.50616186009155,88.8947388326752,90.70045034638338,149.68046819666688,29.658346796666702,120.02212140000016,10.955460802723003,1.412970332273232,mp-867146,867146
2108,F2,-2.67828246,0.009340027499999959,0.00148065,0,0,5.505385165264016,5.097194418673858,2.4097036343757083,1.4834845527977079,1.946594093586708,157.1722217616333,111.62594379799084,45.54627796364244,2.847231474929164,1.412970332273232,mp-561367,561367
2109,GaCuCl4,1.3795218,-1.3148972354166666,0.00029325,0,0,10.763923135929598,8.645218247618702,5.8715529472483015,4.815383308436668,5.343468127842485,5.458532083333334,2.1532357466666663,3.305296336666667,1.8180473967052309,0.047719999999999985,mp-29362,29362
2110,Mn3CuO8,0.98709415,-1.464931576149425,7.9952595,4,2,70.65033015355144,10.105818258153604,29.657733271069855,4.827133959975148,17.2424336155225,157.1722217616333,111.62594379799084,45.54627796364244,2.847231474929164,1.412970332273232,mp-756525,756525
2111,NaNiO2,3.43953858,-1.3379307347629306,1.00027925,1,1,101.39455659784443,98.17193819857546,69.8575438842081,66.25447854316843,68.05601121368827,11.188587196690358,4.15921629002369,7.029370906666668,2.6512960805362096,1.412970332273232,mp-19149,19149
2112,YBi2BrO4,3.70173793,-2.4036058767708326,0.001765,0,0,73.37792005263593,58.47067493287871,40.46920416536082,29.61649408989452,35.04284912762767,26.37668197333333,20.542487836666663,5.834194136666667,2.415407654344638,1.412970332273232,mp-553243,553243
2113,AlFe3C,7.02813427,-0.16057992400000104,3.023535,3,1,230.12027896058686,230.12027896058686,106.14506153897635,88.9547699808733,97.54991575992483,157.1722217616333,111.62594379799084,45.54627796364244,2.847231474929164,1.412970332273232,mp-22793,22793
2114,CoTe2,8.13101057,-0.4681120683333333,0.00047845,0,0,84.60302208806482,84.58874292866444,46.367866541532486,44.923625179629084,45.64574586058079,157.1722217616333,111.62594379799084,45.54627796364244,2.847231474929164,1.412970332273232,mp-9945,9945
2115,NaBrO3,-0.17294211,-1.0029033018103448,3.1025e-05,0,0,27.148426877634975,27.14842687763498,16.160642353278277,15.971983062100772,16.066312707689526,6.253947973333332,3.520801423333333,2.7331465500000003,1.6532230793211182,0.015169999999999996,mp-23339,23339
2116,K(CuSe)2,3.33182321,-0.7211713455374991,0.0109675,0,0,34.42849108337662,33.92697862749295,14.559553783573055,12.244625876485438,13.402089830029247,157.1722217616333,111.62594379799084,45.54627796364244,2.847231474929164,1.412970332273232,mp-567657,567657
2117,Li4Fe(WO4)3,2.75299481,-2.209881925166666,5.9999287,4,4,133.82343657263726,131.9360034569894,88.07637507156825,83.11939047860736,85.59788277508781,157.1722217616333,111.62594379799084,45.54627796364244,2.847231474929164,1.412970332273232,mp-776460,776460
2118,CrGaFe2,6.39980137,-0.027099201874999146,0.9949757,3,2,251.82793506853852,251.82793506853838,67.36200700761988,31.16786946160959,49.26493823461473,157.1722217616333,111.62594379799084,45.54627796364244,2.847231474929164,1.412970332273232,mp-30570,30570
2119,Nb3Bi,6.52306273,0.032512353749998724,0.00272985,0,0,158.23844478692627,158.2384447869263,67.03568675900557,61.88942797102805,64.4625573650168,157.1722217616333,111.62594379799084,45.54627796364244,2.847231474929164,1.412970332273232,mp-568014,568014
2120,CaAlPd,4.73116721,-0.736524825,0.001462225,0,0,63.44458889487927,60.16535765642787,30.061653913440633,24.744074956935943,27.402864435188288,157.1722217616333,111.62594379799084,45.54627796364244,2.847231474929164,1.412970332273232,mp-571039,571039
2121,ZrMnGe,5.8064081,-0.5708625418103447,2.572368825,4,1,100.60055612108592,97.26474965670761,74.44868752958737,65.97052493508627,70.20960623233682,157.1722217616333,111.62594379799084,45.54627796364244,2.847231474929164,1.412970332273232,mp-20059,20059
2122,Dy2O3,1.43195201,-4.009681254999999,9.1e-06,0,0,142.33014974722752,142.3301497472275,64.18361774203272,62.987270254322176,63.58544399817745,157.1722217616333,111.62594379799084,45.54627796364244,2.847231474929164,1.412970332273232,mp-2345,2345
2123,Cu3Pd,5.99772994,-0.1045356117857134,1.4085714285714286e-05,0,0,148.12891211135582,148.12109465229992,59.51608187305007,49.3085377145042,54.41230979377713,157.1722217616333,111.62594379799084,45.54627796364244,2.847231474929164,1.412970332273232,mp-672265,672265
2124,CaGa2,3.12517367,-0.48297381833333297,0.0004042,0,0,48.87704963305202,36.26235476724812,34.88794267927968,27.33318952107129,31.110566100175486,157.1722217616333,111.62594379799084,45.54627796364244,2.847231474929164,1.412970332273232,mp-992,992
2125,HgI,0.76764492,-0.44656254000000006,1.48e-05,0,0,13.443048103865554,6.143098253760231,6.848192262861393,1.3343481408476912,4.091270201854542,40.45443464740907,32.573575570802554,7.880859076606517,2.807286782038222,1.412970332273232,mp-22859,22859
2126,Li2WS4,-0.64511253,-1.135703251309525,0.000413,0,0,8.046441697698802,3.46076159313029,5.166005984548773,0.7386249650303177,2.9523154747895455,4.056059766666665,0.8189684199999999,3.237091346666666,1.799191859326477,0.053109999999999984,mp-861184,861184
2127,NbSe2,3.59946985,-1.1401268932291668,0.219973725,2,3,35.96082572080588,11.325207530953625,25.488146590661525,8.08263515937695,16.78539087501924,157.1722217616333,111.62594379799084,45.54627796364244,2.847231474929164,1.412970332273232,mp-571270,571270
2128,VOF,1.64987316,-2.8297528733333337,2.75e-07,4,1,75.25402915147782,15.756379609057468,51.03754209757809,21.547470548916426,36.29250632324726,157.1722217616333,111.62594379799084,45.54627796364244,2.847231474929164,1.412970332273232,mp-752958,752958
2129,Sr6Cu3N5,3.38766002,-0.6145950182142873,0.00039915,0,0,61.377356937553486,60.85787362306319,28.16761008088553,26.3157411562582,27.241675618571865,17.14901538,9.812171156666667,7.336844223333334,2.708660965003434,0.2917507499561911,mp-29136,29136
2130,Al2O3,9.89412159,-3.394140574,0.0,0,0,197.25801778525062,195.96676697652077,118.99729350154082,102.882875882652,110.9400846920964,9.076372623333333,5.90272453,3.1736480933333335,1.7814735735714222,1.412970332273232,mp-32570,32570
2131,Rb2MgF4,-1.9042786,-3.344638556428571,0.0,0,0,39.97643271442995,39.71947020200268,21.953779037844203,19.87296611887914,20.913372578361674,6.46170000665235,4.356347689985682,2.1053523166666674,1.4509832241162086,1.412970332273232,mp-8861,8861
2132,MgCN2,2.40216986,-0.7975332049999997,1.76e-05,0,0,105.26096338025147,87.60393747477013,47.51246611993726,22.51224720603446,35.01235666298586,8.8628484966599,5.502846259993233,3.3600022366666678,1.8330308880830861,1.412970332273232,mp-9166,9166
2133,NiGe2,7.67715159,-0.16395234833333325,0.000246775,0,0,109.54917960787043,108.92644753662917,48.22489636384898,42.34678577879362,45.2858410713213,157.1722217616333,111.62594379799084,45.54627796364244,2.847231474929164,1.412970332273232,mp-29900,29900
2134,Sb2S3,4.40757171,-0.5511049863749996,5.8175e-05,0,0,21.589607245753733,11.030440623399707,12.830373734762057,5.0652089984434365,8.947791366602747,56.359466313333336,45.14806987333333,11.21139644,3.3483423421149756,1.412970332273232,mp-2809,2809
2135,Fe(SiP)4,7.44490812,-0.28286322037036943,1.3e-06,0,0,115.32273105970187,115.1538987893454,94.46253870179089,86.59264175729183,90.52759022954136,20.808428840000005,3.825687333333334,16.982741506666667,4.121012194433143,0.1816829778505137,mp-9198,9198
2136,SnSe,5.24735222,-0.6659178236718746,0.0018593,0,0,50.180566981699855,50.180566981699855,33.4477603363594,25.119731723966186,29.283746030162796,45.70308129331985,0.0,45.70308129331985,6.760405408946999,1.412970332273232,mp-2693,2693
2137,Zr5Sn4,6.86746087,-0.5926891699999999,0.0006106,0,0,103.58377405540162,103.53554727487295,62.3897186639173,62.06652215890263,62.22812041140996,157.1722217616333,111.62594379799084,45.54627796364244,2.847231474929164,1.412970332273232,mp-543001,543001
2138,CrTe2,5.71917653,-0.47679832000000033,2.4276704,1,1,31.69464100093634,27.321793276484076,15.512898446014727,12.19279023713853,13.852844341576628,157.1722217616333,111.62594379799084,45.54627796364244,2.847231474929164,1.412970332273232,mp-685055,685055
2139,TiFe,6.68669165,-0.4208365316666658,0.0001967,0,0,193.94290726282787,193.9429072628279,102.04000724514944,91.99472899384672,97.01736811949809,157.1722217616333,111.62594379799084,45.54627796364244,2.847231474929164,1.412970332273232,mp-305,305
2140,Br2O,-0.17644432,-0.0661121799999999,0.00015665,0,0,6.604547066717204,5.827194058569676,3.997633522525232,2.7244122048843247,3.361022863704778,10.572136226666666,5.132777363333333,5.439358863333332,2.3322433113492536,0.7586699999999997,mp-28460,28460
2141,K2PbO3,0.98571805,-1.5906176076666665,9.455e-05,0,0,39.802925390697546,38.015180603592626,19.64237821740604,14.701520633504808,17.171949425455423,26.335928766666665,22.020726216666663,4.3152025499999995,2.077306561391457,0.6262806735003086,mp-22756,22756
2142,Cu3SbS4,5.16161913,-0.4757021240624999,2.5e-06,0,0,68.04823639956486,68.03222812534224,27.587637428391517,23.870021860233752,25.728829644312633,157.1722217616333,111.62594379799084,45.54627796364244,2.847231474929164,1.412970332273232,mp-5702,5702
2143,BaTiO3,3.03332332,-3.4890304336666658,8e-07,0,0,124.48311724439633,83.95748044736479,80.51154694053267,59.654260066639885,70.08290350358628,11.516125873333335,5.616452003333333,5.899673870000001,2.4289244265723875,3.578256032734383,mp-5986,5986
2144,Al2S3,3.25636317,-1.3583442052083337,3.711666666666666e-05,0,0,32.90810220347637,32.23031818952951,22.332569055169674,20.90333524504168,21.61795215010568,157.1722217616333,111.62594379799084,45.54627796364244,2.847231474929164,1.412970332273232,mp-2654,2654
2145,CaTiO3,3.09815529,-3.5560871571666666,2.39e-05,0,0,172.00553222994824,171.98358363306957,101.52538845790532,100.81231172456498,101.16885009123516,157.1722217616333,111.62594379799084,45.54627796364244,2.847231474929164,1.412970332273232,mp-4019,4019
2146,Ce,9.6388691,0.001560065000000499,0.0453721,0,0,38.71807098123134,38.71807098123135,41.8587020858923,36.36743178097278,39.113066933432535,157.1722217616333,111.62594379799084,45.54627796364244,2.847231474929164,1.412970332273232,mp-28,28
2147,Cs2PtBr6,-0.4364949,-1.41246394454023,2e-05,0,0,8.198358858048095,8.198358858048095,5.097622249540335,5.084685311482149,5.091153780511242,7.784088610031264,4.262660176697959,3.5214284333333055,1.8765469440792857,1.412970332273232,mp-30062,30062
2148,NbAlFe2,6.75348945,-0.3757604849999998,0.0003009,0,0,211.83933718245942,211.83933718245945,123.84157226535488,123.8322862306266,123.83692924799074,89.90122181333334,31.480065393333344,58.421156419999996,7.643373366518215,1.412970332273232,mp-865280,865280
2149,MnNiO3,4.01646301,-1.6192723405862068,1.00009335,4,2,175.56690238871334,174.76056318912867,89.08480878210463,88.884438449,88.98462361555232,14.25035246666667,6.116885063333335,8.133467403333334,2.8519234567802365,1.412970332273232,mp-19331,19331
2150,V5Te4,7.12770393,-0.49330469777777824,0.8372198,5,2,50.84201929044994,49.90185356755636,2.944398152946485,57.698285999074,30.321342076010243,157.1722217616333,111.62594379799084,45.54627796364244,2.847231474929164,1.412970332273232,mp-9948,9948
2151,ZrTe,7.24902468,-1.0845190787500005,1.9125e-05,0,0,87.89061481012801,86.464130791535,49.19372151075044,39.0153613875666,44.10454144915852,157.1722217616333,111.62594379799084,45.54627796364244,2.847231474929164,1.412970332273232,mp-568865,568865
2152,PPbS3,3.55936684,-0.7265524800416671,0.001117625,0,0,28.51570080834135,27.58825085596633,13.70630885340474,12.549386896604307,13.127847875004523,65.52597098,57.94723061,7.578740370000001,2.7529512109734164,1.412970332273232,mp-20199,20199
2153,Si3W5,9.09600734,-0.148013859375002,0.0002208,0,0,268.12171876853245,266.14976920832873,122.65854109820579,119.72851221313053,121.19352665566817,157.1722217616333,111.62594379799084,45.54627796364244,2.847231474929164,1.412970332273232,mp-31219,31219
2154,CoPt3,7.17591438,-0.053970363750000416,2.8069703,4,2,220.6369594761534,220.6369594761534,94.4711869048739,88.30762672066096,91.38940681276743,157.1722217616333,111.62594379799084,45.54627796364244,2.847231474929164,1.412970332273232,mp-922,922
2155,Sr,1.63453744,0.006400903333333208,0.0014988,0,0,12.060328958824645,12.060328958824645,8.436766646535727,4.587911430839131,6.512339038687429,157.1722217616333,111.62594379799084,45.54627796364244,2.847231474929164,1.412970332273232,mp-76,76
2156,PbCO3,2.63507892,-1.8096030824999993,0.000140325,0,0,59.0985638553479,52.557871943701805,21.75077695016623,20.36151817307825,21.05614756162224,157.1722217616333,111.62594379799084,45.54627796364244,2.847231474929164,1.412970332273232,mp-19893,19893
2157,NaCoO2,3.98855143,-1.5685470678879305,2.85e-05,0,0,111.79582394496637,110.29900130903582,-18.843753850856615,145.07471182110783,63.115478985125606,13.183400379994657,7.52749205332799,5.655908326666666,2.3782153659134124,1.412970332273232,mp-18921,18921
2158,NdI2,4.32779773,-1.5473327333333338,0.0163385,0,0,20.51876079919553,1.9258715064170862,14.13465133480945,1.3313408737620585,7.732996104285754,157.1722217616333,111.62594379799084,45.54627796364244,2.847231474929164,1.412970332273232,mp-28753,28753
2159,ZrO2,0.50730078,-3.798725489999999,3e-07,0,0,174.98022234872744,172.2472913613341,45.44464784228048,31.983947372158433,38.71429760721946,157.1722217616333,111.62594379799084,45.54627796364244,2.847231474929164,1.412970332273232,mp-754403,754403
2160,YCd3,3.49139232,-0.2727191866666665,0.0019733,0,0,55.438629943031714,55.438629943031735,24.864521083677758,12.512644341975657,18.688582712826708,157.1722217616333,111.62594379799084,45.54627796364244,2.847231474929164,1.412970332273232,mp-571059,571059
2161,TiCo2Sn,8.27205061,-0.38394955708333356,2.001423,2,1,168.18281506686304,168.18281506686307,77.21597361750123,70.03562531236207,73.62579946493165,157.1722217616333,111.62594379799084,45.54627796364244,2.847231474929164,1.412970332273232,mp-21467,21467
2162,S(OF)2,-3.37971637,-1.9797331201249988,0.0001416,0,0,3.8444680891197884,-0.05487419078037778,2.4502848528352144,-0.001741088936889768,1.2242718819491623,2.325346723333333,0.5257861733333334,1.79956055,1.3414770031573409,0.0266,mp-8537,8537
2163,YMg3,3.45549197,-0.09079441416666656,0.0027635,0,0,40.12903944647255,40.129039446472554,26.842906288102895,10.97748228293159,18.910194285517242,157.1722217616333,111.62594379799084,45.54627796364244,2.847231474929164,1.412970332273232,mp-865376,865376
2164,Y2ZnRu,4.10181774,-0.35893983708333366,3.31e-05,0,0,86.60181121356474,86.60181121356474,31.67326261990423,31.304500529330134,31.48888157461718,157.1722217616333,111.62594379799084,45.54627796364244,2.847231474929164,1.412970332273232,mp-865592,865592
2165,KFeS2,2.2472572,-1.0015904073125004,2.54082915,2,1,20.359718261345943,16.93866379933068,10.649951183997304,6.695354207632839,8.67265269581507,157.1722217616333,111.62594379799084,45.54627796364244,2.847231474929164,1.412970332273232,mp-3827,3827
2166,GdFeO3,3.29047784,-2.7971758054999993,12.000000075,8,2,127.82285999501144,124.94346276623342,72.39541450788035,70.33011914152978,71.36276682470506,157.1722217616333,111.62594379799084,45.54627796364244,2.847231474929164,1.412970332273232,mp-600576,600576
2167,Sr2MnMoO6,3.73677476,-2.649397158126437,0.0,4,4,122.36948204293334,121.8633120343477,58.32923636838102,57.28095972436456,57.80509804637279,157.1722217616333,111.62594379799084,45.54627796364244,2.847231474929164,1.412970332273232,mp-555929,555929