,formula_pretty,efermi,formation_energy_per_atom,total_magnetization_normalized_formula_units,num_magnetic_sites,num_unique_magnetic_sites,k_voigt,k_reuss,g_voigt,g_reuss,g_vrh,e_total,e_ionic,e_electronic,n,e_ij_max,material_id,b
1088,AlVNi2,7.99677711,-0.38716489749999994,0.0002926,0,0,177.20275565709636,177.20275565709233,72.2299956073136,29.469844962505867,50.84992028490973,157.1722217616333,111.62594379799084,45.54627796364244,2.847231474929164,1.412970332273232,mp-10899,10899
1089,VAuS2,5.7916229,-0.9561903315625004,0.0002516,0,0,114.70117701972566,96.411452810668,57.50212207450545,45.81186880570475,51.6569954401051,157.1722217616333,111.62594379799084,45.54627796364244,2.847231474929164,1.412970332273232,mp-11193,11193
1090,CaAl2SiO6,3.87517592,-3.4282551435000004,0.000208275,0,0,130.57272797500548,122.4765711232882,73.60462713055917,66.3416631191795,69.97314512486933,157.1722217616333,111.62594379799084,45.54627796364244,2.847231474929164,1.412970332273232,mp-1019584,1019584
1091,LiAlAg2,5.00448206,-0.2531974216666666,0.0023213,0,0,68.57645845662967,68.57645845662964,34.987210018004134,18.683079521819973,26.835144769912056,157.1722217616333,111.62594379799084,45.54627796364244,2.847231474929164,1.412970332273232,mp-11947,11947
1092,Rb2PdC2,0.68622944,0.036901325000000186,5.26e-05,0,0,39.428744587241454,23.075190706995187,20.773252396933408,6.6760541909657904,13.724653293949599,157.1722217616333,111.62594379799084,45.54627796364244,2.847231474929164,1.412970332273232,mp-10918,10918
1093,Ba4Cu3PbO9,3.44576177,-1.9942107908823539,0.0021221,0,0,93.49894815641409,93.4989481564141,45.34189789774837,42.887401149333144,44.114649523540756,157.1722217616333,111.62594379799084,45.54627796364244,2.847231474929164,1.412970332273232,mp-1023127,1023127
1094,CdPt,4.81851143,-0.3062444949999996,1.91e-05,0,0,136.9503626969823,136.64384003974928,50.67491223443949,45.44401588829814,48.059464061368814,157.1722217616333,111.62594379799084,45.54627796364244,2.847231474929164,1.412970332273232,mp-1194,1194
1095,CuNiSb2,8.90000483,-0.24156862999999973,0.0010937,0,0,92.02920637939168,91.81259667006165,38.57996594785583,37.294830925799594,37.93739843682771,157.1722217616333,111.62594379799084,45.54627796364244,2.847231474929164,1.412970332273232,mp-11834,11834
1096,NbSiRh,7.52643173,-0.840848990833333,1.0175e-05,0,0,221.57858800660415,221.2228101646716,115.30678874227696,109.3065982647431,112.30669350351003,157.1722217616333,111.62594379799084,45.54627796364244,2.847231474929164,1.412970332273232,mp-10470,10470
1097,VP,8.27551038,-0.8149034391666667,1.45e-05,0,0,178.66385147067473,162.7273164049431,128.23039672001747,95.27351548587309,111.75195610294529,157.1722217616333,111.62594379799084,45.54627796364244,2.847231474929164,1.412970332273232,mp-1114,1114
1098,NiAgSe2,4.16178892,-0.3634370453385416,0.5718394,1,1,72.53272133429762,70.68572207136049,20.048554821251336,17.77369691509602,18.911125868173677,157.1722217616333,111.62594379799084,45.54627796364244,2.847231474929164,1.412970332273232,mp-1018020,1018020
1099,ZrCdCu2,4.70409259,-0.1477695324999999,3.34e-05,0,0,114.93102495039882,114.93102495039885,55.78119847400878,46.133939409785874,50.95756894189733,157.1722217616333,111.62594379799084,45.54627796364244,2.847231474929164,1.412970332273232,mp-11293,11293
1100,Sn,4.9063615,0.0,0.0001439,0,0,38.48975875447928,38.48975875447929,22.05807177622682,20.67053664866767,21.364304212447244,157.1722217616333,111.62594379799084,45.54627796364244,2.847231474929164,1.412970332273232,mp-117,117
1101,SmS,5.93787583,-2.2743243890625005,0.0010721,0,0,90.53671548546957,90.53671548546956,50.86461373264392,29.68334650212411,40.27398011738401,157.1722217616333,111.62594379799084,45.54627796364244,2.847231474929164,1.412970332273232,mp-1269,1269
1102,YAl,4.34242077,-0.418346848333333,0.2527955,0,0,64.23533341802187,54.93093493599621,42.84034226138086,26.82269778179459,34.83152002158773,157.1722217616333,111.62594379799084,45.54627796364244,2.847231474929164,1.412970332273232,mp-11228,11228
1103,MgPPt5,7.35175343,-0.5809626961904755,0.002934,0,0,197.95029213489323,197.1887584712141,79.17879233801969,70.55912456642623,74.86895845222296,157.1722217616333,111.62594379799084,45.54627796364244,2.847231474929164,1.412970332273232,mp-15780,15780
1104,MgSbPd,6.23207912,-0.6273420399999997,0.0001777,0,0,80.6590789792171,80.65907897921709,29.363144834947267,28.45782650303171,28.910485668989487,157.1722217616333,111.62594379799084,45.54627796364244,2.847231474929164,1.412970332273232,mp-10183,10183
1105,Mn3Al9Si,8.40081373,-0.2703663775994694,2.6980092,6,1,117.11657224611066,117.06287160469799,79.09074228632491,78.7004666704621,78.89560447839351,157.1722217616333,111.62594379799084,45.54627796364244,2.847231474929164,1.412970332273232,mp-15819,15819
1106,CeS,8.60730217,-2.2972746290624997,0.1440823,1,1,86.99224413080758,86.99224413080753,61.31183124834506,42.169273651975985,51.74055245016052,157.1722217616333,111.62594379799084,45.54627796364244,2.847231474929164,1.412970332273232,mp-1096,1096
1107,Ti2InN,8.36373402,-1.1566976879166662,0.00107735,0,0,137.51329031550702,136.67809931854353,84.96377857951848,83.51580958354624,84.23979408153235,157.1722217616333,111.62594379799084,45.54627796364244,2.847231474929164,1.412970332273232,mp-1025517,1025517
1108,Zr3Hg,4.16632775,-0.18071051500000035,2.415e-05,0,0,104.21131943058964,104.21131943058963,59.684378690260395,55.69646358899469,57.690421139627546,157.1722217616333,111.62594379799084,45.54627796364244,2.847231474929164,1.412970332273232,mp-1630,1630
1109,BaS,1.35700937,-2.3300412015624996,0.0003547,0,0,41.39019080616291,41.39019080616292,26.178585956502882,23.558289877667544,24.868437917085213,14.953045706679058,10.147174973344821,4.805870733334237,2.192229626050665,1.412970332273232,mp-1500,1500
1110,InSb,6.70232326,-0.07110854499999997,0.0007131,0,0,49.870068520556494,49.8700685205565,17.44564224790995,8.535302781945216,12.990472514927584,157.1722217616333,111.62594379799084,45.54627796364244,2.847231474929164,1.412970332273232,mp-10149,10149
1111,Ni2Ge,9.13824892,-0.2747626066666662,9.845e-05,0,0,178.07751031299023,175.89524172256017,48.26095904212108,39.80452076127955,44.03273990170031,157.1722217616333,111.62594379799084,45.54627796364244,2.847231474929164,1.412970332273232,mp-1594,1594
1112,Yb(AlSi)2,5.26455589,-0.28742513999999986,5.2e-06,0,0,64.7857840539252,62.25844734313619,43.27690730027637,41.24051855982326,42.25871293004981,157.1722217616333,111.62594379799084,45.54627796364244,2.847231474929164,1.412970332273232,mp-10405,10405
1113,Be12Mo,5.12066346,-0.1278049638461541,0.0024745,0,0,140.54324192847,140.50235556606185,151.21894331643796,148.6290989400918,149.92402112826488,157.1722217616333,111.62594379799084,45.54627796364244,2.847231474929164,1.412970332273232,mp-1475,1475
1114,Ti2Te2P,6.3414844,-1.0833630140000003,0.0249199,0,0,34.92933569029972,6.417557253790745,23.10902134643502,4.837670959299007,13.973346152867014,157.1722217616333,111.62594379799084,45.54627796364244,2.847231474929164,1.412970332273232,mp-12527,12527
1115,Mg3Au,4.14547547,-0.41481424916666665,0.00011071666666666667,0,0,57.36955398410393,57.36553988701797,30.726114359833044,29.376537222837367,30.051325791335206,157.1722217616333,111.62594379799084,45.54627796364244,2.847231474929164,1.412970332273232,mp-1557,1557
1116,ZrTe2,4.93572726,-1.1620816233333346,0.0002235,0,0,18.121383564494295,10.132099483591517,15.791110862186207,9.910643213573758,12.850877037879982,157.1722217616333,111.62594379799084,45.54627796364244,2.847231474929164,1.412970332273232,mp-1018107,1018107
1117,LiF,0.26617945,-2.8784025379166662,0.0,0,0,69.83157791021878,69.83157791021878,39.96993277391983,-50.74425124248809,-5.38715923428413,157.1722217616333,111.62594379799084,45.54627796364244,2.847231474929164,1.412970332273232,mp-1009009,1009009
1118,SrLiP,2.68378373,-0.9778120411111111,3.57e-05,0,0,44.816145862673096,43.7832903694507,37.01121770024406,36.234087224355704,36.62265246229988,23.12897521666667,15.136906346666668,7.992068870000001,2.827024738130178,1.412970332273232,mp-13276,13276
1119,V2AsC,7.61077635,-0.5337953174999992,0.0249658,0,0,203.21838737339215,202.9359824641389,119.84260104373668,109.78757791611893,114.8150894799278,157.1722217616333,111.62594379799084,45.54627796364244,2.847231474929164,1.412970332273232,mp-10046,10046
1120,Si,5.63019776,0.0,0.00030665,0,0,83.0112836733574,83.01128367335741,62.950671302967415,59.371391875923024,61.161031589445216,13.003383160000025,0.0,13.003383160000025,3.6060204048230267,1.412970332273232,mp-149,149
1121,ZrPt,6.1583576,-0.9088991399999999,0.0012704,0,0,165.78851337958753,165.7885133795877,21.904921261968404,5.427900122746242,13.666410692357323,157.1722217616333,111.62594379799084,45.54627796364244,2.847231474929164,1.412970332273232,mp-11554,11554
1122,FeS2,7.70109249,-0.8481131204166665,3.05e-06,0,0,150.09498691481843,149.62732060405622,128.4687825041768,121.194734530215,124.83175851719591,27.484519476666666,6.424651693333334,21.05986778333333,4.5891031567544145,1.412970332273232,mp-1522,1522
1123,LiSnAu,5.56380094,-0.42353084444444455,0.0001165,0,0,63.0057165544315,59.18302824391337,18.997316839493646,12.384374107500092,15.690845473496868,157.1722217616333,111.62594379799084,45.54627796364244,2.847231474929164,1.412970332273232,mp-11977,11977
1124,ZnSnO3,4.17601123,-1.9394251929999995,0.0001768,0,0,167.05113595118206,163.82519004190507,72.7307087290178,72.03406836845909,72.38238854873845,17.576637669998153,12.572589213331485,5.004048456666669,2.2369730567592154,1.1032987193412371,mp-13334,13334
1125,Co,5.53986296,0.016113994999999548,1.6215574,1,1,211.57506369852783,211.57506369852777,111.83982575306557,91.49113496558077,101.66548035932317,157.1722217616333,111.62594379799084,45.54627796364244,2.847231474929164,1.412970332273232,mp-102,102
1126,CdO,0.05184308,-1.3574907124999998,0.0001631,0,0,93.7484619354809,91.96420496680092,19.30618287671263,19.22048700233538,19.263334939524004,157.1722217616333,111.62594379799084,45.54627796364244,2.847231474929164,1.412970332273232,mp-13119,13119
1127,Na2CuAs,2.53325381,-0.3674577082758623,0.00043885,0,0,29.973013842161095,29.625655634870093,20.458654637684237,15.936199223067844,18.19742693037604,16.72443380999929,6.340067956665959,10.38436585333333,3.2224782161146304,1.412970332273232,mp-15685,15685
1128,VTe2,6.52796899,-0.6077918755555558,0.03271676666666667,3,2,32.45956601400794,20.379783474262695,22.01729995690949,12.705358516880416,17.361329236894953,157.1722217616333,111.62594379799084,45.54627796364244,2.847231474929164,1.412970332273232,mp-11687,11687
1129,SrC2,0.30261601,0.01900950777777884,0.0,0,0,46.97085804351249,44.377509557217735,19.184744350827813,10.684006383101574,14.934375366964694,157.1722217616333,111.62594379799084,45.54627796364244,2.847231474929164,1.412970332273232,mp-10497,10497
1130,ZnNi3C,6.53066678,-0.05983642399999951,0.0017246,0,0,189.96251105067878,189.9625110506788,68.6111047172954,51.62330712845332,60.11720592287436,157.1722217616333,111.62594379799084,45.54627796364244,2.847231474929164,1.412970332273232,mp-16290,16290
1131,MgSe,2.81998307,-1.4703456911718744,0.0007143,0,0,58.82342567626688,58.82342567626687,41.33455651558993,41.29479656504882,41.314676540319375,157.1722217616333,111.62594379799084,45.54627796364244,2.847231474929164,1.412970332273232,mp-10760,10760
1132,Rb2ZrF6,-3.1582418,-3.66119475,0.0001085,0,0,22.197101904106553,21.6896260417873,10.272482085504183,9.724014667576931,9.998248376540557,10.025947180061133,7.870097543394466,2.1558496366666664,1.4682811844693326,1.412970332273232,mp-13946,13946
1133,HgGeO3,4.04565211,-1.173960573,0.000284,0,0,172.14916517318503,172.14916517318508,71.44173720825059,56.20469707446802,63.82321714135931,157.1722217616333,111.62594379799084,45.54627796364244,2.847231474929164,1.412970332273232,mp-1017447,1017447
1134,Yb(MgSb)2,4.0900354,-0.7880707279999999,0.0001737,0,0,41.08090384733076,40.602997121135076,27.814032051541314,27.208488011775714,27.511260031658516,157.1722217616333,111.62594379799084,45.54627796364244,2.847231474929164,1.412970332273232,mp-10996,10996
1135,CrFe2Si,8.4872134,-0.23806940250000075,1.9996215,3,2,241.35082538908807,241.3508253890881,64.42597097770629,-114.6275699902023,-25.10079950624801,157.1722217616333,111.62594379799084,45.54627796364244,2.847231474929164,1.412970332273232,mp-1018068,1018068
1136,TiCu,6.48252001,-0.0531357916666666,0.9171828,2,2,128.36683068856627,128.36131355345665,50.336575672503734,36.81913562351967,43.577855648011706,157.1722217616333,111.62594379799084,45.54627796364244,2.847231474929164,1.412970332273232,mp-11364,11364
1137,Ba,1.60282919,0.0,0.0005074,0,0,8.85682289681567,8.856822896815668,7.056134628372585,4.381892062683159,5.7190133455278716,157.1722217616333,111.62594379799084,45.54627796364244,2.847231474929164,1.412970332273232,mp-122,122
1138,Ca(ZnSi)2,5.34742706,-0.26480095800000003,0.0001508,0,0,70.34993971224486,69.70042776418919,37.2706572422007,34.84037662194201,36.055516932071356,157.1722217616333,111.62594379799084,45.54627796364244,2.847231474929164,1.412970332273232,mp-12137,12137
1139,Si3Pt2,8.66462143,-0.5175084210000002,0.00051445,0,0,161.61515633183706,160.26324194185887,36.32121139669102,14.195121675164668,25.258166535927842,157.1722217616333,111.62594379799084,45.54627796364244,2.847231474929164,1.412970332273232,mp-10744,10744
1140,LaTe2,7.90090824,-1.6797283466666666,0.00024245,0,0,52.37757616363694,52.245044503400685,25.452970963560436,24.397061343908113,24.925016153734276,157.1722217616333,111.62594379799084,45.54627796364244,2.847231474929164,1.412970332273232,mp-1329,1329
1141,HgS,1.37194997,-0.37900832906250015,0.0,0,0,49.693623714361124,49.693623714361124,17.652158365648976,13.19071145520378,15.421434910426377,157.1722217616333,111.62594379799084,45.54627796364244,2.847231474929164,1.412970332273232,mp-1123,1123
1142,Sc6FeTe2,6.01874507,-0.7170975299999998,0.0005218,0,0,67.90133673649768,67.6639004757755,35.81471635823604,28.747637441765068,32.28117690000055,157.1722217616333,111.62594379799084,45.54627796364244,2.847231474929164,1.412970332273232,mp-10445,10445
1143,CrN,5.93964016,-0.6628011874999995,1.8438667,1,1,204.97321483609184,204.9732148360918,74.09733902208451,62.459660744877965,68.27849988348123,157.1722217616333,111.62594379799084,45.54627796364244,2.847231474929164,1.412970332273232,mp-1018157,1018157
1144,NiS,7.99209344,-0.6109650048958327,0.0007003666666666667,0,0,123.79216262226997,123.71471695733774,59.94918625766027,56.55125555395501,58.25022090580764,157.1722217616333,111.62594379799084,45.54627796364244,2.847231474929164,1.412970332273232,mp-1547,1547
1145,CdCu2GeS4,4.16288452,-0.6552389484374999,3.35e-05,0,0,66.65703470136052,66.44550419080943,28.355363467777597,27.001988089894752,27.678675778836173,11.735008106666664,2.742944589999999,8.992063516666667,2.998676961039096,0.342454035163845,mp-13982,13982
1146,NbRu3,7.49282391,-0.1328168237499998,0.0004255,0,0,270.5559607087714,270.5559607087714,135.24175204452737,121.71478126545347,128.47826665499042,157.1722217616333,111.62594379799084,45.54627796364244,2.847231474929164,1.412970332273232,mp-11517,11517
1147,YNi,4.79436289,-0.431824902083334,0.00093265,0,0,78.76101604741271,78.21161252090421,25.886958312952267,22.73737915317751,24.312168733064887,157.1722217616333,111.62594379799084,45.54627796364244,2.847231474929164,1.412970332273232,mp-1364,1364
1148,CaLaFeSbO6,5.59182798,-2.7179547064999996,2.7925e-05,4,2,133.0146212164699,130.74622059083936,45.39910411144338,39.34693383312217,42.37301897228278,157.1722217616333,111.62594379799084,45.54627796364244,2.847231474929164,1.412970332273232,mp-1043864,1043864
1149,ScF3,-3.69540314,-4.298431470624999,4.02e-05,0,0,88.80316027434026,88.80316027434027,54.00184802798535,27.309984684130892,40.65591635605812,8.383185603333335,6.120269143333335,2.26291646,1.504299325267415,1.412970332273232,mp-10694,10694
1150,WO2,3.56805585,-1.6435635283333323,1.9998895,4,1,118.36237052660223,113.3779767281127,47.05883357099533,11.566320961251703,29.31257726612352,157.1722217616333,111.62594379799084,45.54627796364244,2.847231474929164,1.412970332273232,mp-1047616,1047616
1151,GaCo,6.02581106,-0.2818487862500003,0.0920255,1,1,175.8268439858863,175.82684398588628,76.64372600947014,56.801354936419294,66.72254047294471,157.1722217616333,111.62594379799084,45.54627796364244,2.847231474929164,1.412970332273232,mp-1121,1121
1152,P2W,9.08588243,-0.36267818888888925,8.745e-05,0,0,191.64593751835739,186.53879998245407,120.01175265343609,105.1867645857144,112.59925861957524,157.1722217616333,111.62594379799084,45.54627796364244,2.847231474929164,1.412970332273232,mp-11329,11329
1153,KCu4Se3,4.06211093,-0.5367587000039058,0.0012318,0,0,39.92743500937816,39.84273254662662,15.362079405342797,13.349097476622246,14.355588440982523,157.1722217616333,111.62594379799084,45.54627796364244,2.847231474929164,1.412970332273232,mp-10092,10092
1154,MnZn,4.2400777,0.062493686034482465,2.8528941,1,1,115.2828200834234,115.28282008342349,54.50151022786901,-85.02562879939073,-15.26205928576086,157.1722217616333,111.62594379799084,45.54627796364244,2.847231474929164,1.412970332273232,mp-11503,11503
1155,KGe2N3,4.08546377,-0.29947553383333175,3.1e-06,0,0,135.48967579862116,134.5163922932472,81.96360588104605,75.187608629132,78.57560725508903,11.440889886666668,6.041460296666667,5.39942959,2.323667271792586,0.36663,mp-1029404,1029404
1156,BaSi2,3.44813571,-0.3128972954166673,0.0005222625,0,0,31.52860091471715,30.78542803391367,18.833342459810655,18.090899686673108,18.46212107324188,19.79252948666667,7.449493583333333,12.343035903333336,3.5132657034920283,1.412970332273232,mp-1477,1477
1157,Cu3O2,4.15311485,-0.6034587459999997,0.0014974,0,0,129.8204123868529,90.97453881583851,48.14948102730774,25.144785347151753,36.64713318722975,157.1722217616333,111.62594379799084,45.54627796364244,2.847231474929164,1.412970332273232,mp-1022728,1022728
1158,P,-0.49395072,0.13895721625,0.00016315416666666668,0,0,1.3918710533308862,1.3775035488111713,0.6232669744106507,0.5852770394277885,0.6042720069192196,157.1722217616333,111.62594379799084,45.54627796364244,2.847231474929164,1.412970332273232,mp-118,118
1159,P3Rh,7.94880929,-0.5776477499999997,0.000690375,0,0,150.88484508392187,150.8848450839219,95.53977579215258,95.53168581162485,95.53573080188872,157.1722217616333,111.62594379799084,45.54627796364244,2.847231474929164,1.412970332273232,mp-1357,1357
1160,MgTe,2.09590592,-1.0866360074999997,3.46e-05,0,0,34.53630834322293,34.535178237876,12.438937151028957,12.154419457101328,12.296678304065143,8.000893296677347,2.510227656677347,5.49066564,2.343216942581288,0.2703795321395513,mp-1039,1039
1161,YCo4B,4.97177958,-0.29409526680555587,3.63809985,8,2,165.51004620666276,162.87072622637055,58.5133194161919,57.90444859727465,58.20888400673327,157.1722217616333,111.62594379799084,45.54627796364244,2.847231474929164,1.412970332273232,mp-10463,10463
1162,NbPt2,6.96320304,-0.6869240833333331,0.0025641,0,0,245.12109654530752,243.60006817336495,115.05908240154153,101.1565096454999,108.1077960235207,157.1722217616333,111.62594379799084,45.54627796364244,2.847231474929164,1.412970332273232,mp-11514,11514
1163,HfGe2,7.19005926,-0.47152715,0.0018157,0,0,113.49969800175731,111.81838105272327,72.08162670710466,68.96423286189544,70.52292978450005,157.1722217616333,111.62594379799084,45.54627796364244,2.847231474929164,1.412970332273232,mp-13683,13683
1164,SrMg6Cr,2.9908915,0.2258947666666664,4.46454015,1,1,29.64708116089631,27.084635984150925,11.54452451561478,27.24955414287261,19.397039329243697,157.1722217616333,111.62594379799084,45.54627796364244,2.847231474929164,1.412970332273232,mp-1016300,1016300
1165,CoSe2,3.9217054,-0.5787795007291662,0.00015445,0,0,36.93620311929088,36.93620311929087,14.860273428960987,13.478960345321745,14.169616887141366,157.1722217616333,111.62594379799084,45.54627796364244,2.847231474929164,1.412970332273232,mp-1390196,1390196