,formula_pretty,efermi,formation_energy_per_atom,total_magnetization_normalized_formula_units,num_magnetic_sites,num_unique_magnetic_sites,k_voigt,k_reuss,g_voigt,g_reuss,g_vrh,e_total,e_ionic,e_electronic,n,e_ij_max,material_id,b
857,Mg2VN3,3.24533696,-1.1281474699999994,8.03e-05,0,0,132.45536529752886,122.89375148111783,57.80755121159741,50.646341765258455,54.226946488427934,12.618336616666666,6.3743586699999994,6.243977946666665,2.498795299072468,1.9496395466341974,mp-1029368,1029368
858,CuO,4.4961494,-0.9427949424999991,0.0004602,0,0,150.69067731899042,135.34461832508978,34.52119928768772,15.662129229343526,25.091664258515625,157.1722217616333,111.62594379799084,45.54627796364244,2.847231474929164,1.412970332273232,mp-1692,1692
859,Ca(ZnGe)2,4.62682838,-0.32472050399999974,0.0009049,0,0,59.043732884711,59.02885852395449,19.779049863358615,18.546563662653217,19.162806763005918,157.1722217616333,111.62594379799084,45.54627796364244,2.847231474929164,1.412970332273232,mp-13911,13911
860,CrS2,4.88100445,-0.8403592354166669,2.0124709,4,2,45.75846093956875,45.75160430413185,21.00201782636028,20.75558758248001,20.878802704420146,157.1722217616333,111.62594379799084,45.54627796364244,2.847231474929164,1.412970332273232,mp-1442954,1442954
861,TiAlAu,7.07426997,-0.49771161777777867,0.45860735,2,1,131.42762829314648,124.79973253758388,58.55151677153387,56.70962679358412,57.630571782558995,157.1722217616333,111.62594379799084,45.54627796364244,2.847231474929164,1.412970332273232,mp-16481,16481
862,CaFeSiO5,2.28422785,-2.6252391787500002,4.00007255,2,2,101.22143545905074,94.72296927353734,49.3808261184259,25.743623435934627,37.56222477718026,157.1722217616333,111.62594379799084,45.54627796364244,2.847231474929164,1.412970332273232,mp-1046733,1046733
863,BePd3,4.10172329,-0.38197974749999997,1.135e-05,0,0,161.79418267717008,161.709136569133,41.773377797105226,32.76277586788327,37.268076832494245,157.1722217616333,111.62594379799084,45.54627796364244,2.847231474929164,1.412970332273232,mp-13453,13453
864,Mg2CrN3,4.63634306,-0.8666889083333338,1.00063905,2,1,133.6802041660074,111.51635156523977,54.32171187353002,41.575588861467736,47.94865036749888,157.1722217616333,111.62594379799084,45.54627796364244,2.847231474929164,1.412970332273232,mp-1029520,1029520
865,SrLi4N2,0.7815771,-0.5408831642857146,9.13e-05,0,0,52.503744209966726,52.47647992028749,32.41120746892967,25.75553747691116,29.083372472920416,12.673660570000004,6.119742716666667,6.553917853333338,2.5600620799764484,1.412970332273232,mp-15845,15845
866,Sc6FeSb2,5.57417003,-0.6234422666666661,0.4163886,1,1,72.31774809737476,71.70008155156367,46.16129503989146,44.5558086021541,45.358551821022786,157.1722217616333,111.62594379799084,45.54627796364244,2.847231474929164,1.412970332273232,mp-11201,11201
867,AlBN2,6.95383772,-1.1382442697916666,0.0,0,0,258.60904682119,257.2273155875913,185.26221345332547,168.27455441772557,176.76838393552552,157.1722217616333,111.62594379799084,45.54627796364244,2.847231474929164,1.412970332273232,mp-1008557,1008557
868,Ca2Sn3O8,3.22581466,-2.5545313888461534,9.95e-05,0,0,109.08001982387486,104.86885425115005,48.69456034543132,42.14776462817906,45.42116248680519,157.1722217616333,111.62594379799084,45.54627796364244,2.847231474929164,1.412970332273232,mp-1386610,1386610
869,CrCo,6.2961205,0.1535611025000012,2.9596937,2,2,210.39983703743098,210.399837037431,114.53941882468187,95.50535322000394,105.02238602234291,157.1722217616333,111.62594379799084,45.54627796364244,2.847231474929164,1.412970332273232,mp-1010071,1010071
870,CO2,-4.18865384,-1.76317916,5e-08,0,0,4.970216863032935,4.964270582133892,2.565474123036267,1.344742424709753,1.9551082738730101,2.1125087333333328,0.22178378333333326,1.8907249499999994,1.3750363449741971,1.412970332273232,mp-11725,11725
871,MnAl6,7.86842319,-0.1736976254187194,0.0005107,0,0,103.88501482158078,103.71127413535538,68.71155787705985,66.00849687378869,67.36002737542427,157.1722217616333,111.62594379799084,45.54627796364244,2.847231474929164,1.412970332273232,mp-173,173
872,HfZnN2,4.06665717,-1.1712421775000008,0.0005454,0,0,184.6872885902275,184.348698461443,92.42152006502985,79.97823279328364,86.19987642915675,35.53430887333376,27.36692337333375,8.167385500000002,2.8578638001136447,2.8753056289282153,mp-1014251,1014251
873,MnAsPd2,5.67838287,-0.2411324407327582,4.1788836,1,1,130.4605058617908,130.46050586179135,26.549299811543346,-1.8446685877524032,12.352315611895472,157.1722217616333,111.62594379799084,45.54627796364244,2.847231474929164,1.412970332273232,mp-12559,12559
874,Si4P4Ru,6.93331539,-0.358363407592593,0.0008185,0,0,119.92749815639826,119.73739602014616,91.08046463299486,81.74878606886489,86.41462535092987,18.42917293333334,3.2663446633333346,15.162828270000006,3.8939476460271014,0.18355334527846287,mp-14983,14983
875,Al3Ni2,7.84452714,-0.6130797780000001,0.0022008,0,0,130.41974179290253,130.3461414370434,85.91027530417608,85.09885270203411,85.50456400310509,157.1722217616333,111.62594379799084,45.54627796364244,2.847231474929164,1.412970332273232,mp-1057,1057
876,MgV2O5,4.557209,-2.5632700618750004,1.99987525,4,1,85.09749744418262,80.50244030581223,11.283099976347872,-17.78194531764274,-3.2494226706474345,157.1722217616333,111.62594379799084,45.54627796364244,2.847231474929164,1.412970332273232,mp-1411095,1411095
877,LiBeB,2.66324917,-0.1226927041666664,0.0001251,0,0,71.8255500777754,38.722053627162445,77.93714258741666,42.072076798925075,60.00460969317086,157.1722217616333,111.62594379799084,45.54627796364244,2.847231474929164,1.412970332273232,mp-1018783,1018783
878,ErAs,4.22854133,-1.5128535875000004,0.0020452,0,0,79.4440347277574,79.44403472775738,57.22743308490318,51.07223488573288,54.14983398531803,157.1722217616333,111.62594379799084,45.54627796364244,2.847231474929164,1.412970332273232,mp-1688,1688
879,LiAl,4.71681619,-0.17763832666666657,9.945e-05,0,0,49.79439593673128,49.79439544110447,45.404081081814304,34.96632579865033,40.185203440232314,157.1722217616333,111.62594379799084,45.54627796364244,2.847231474929164,1.412970332273232,mp-1067,1067
880,Zr3(CuSi)4,7.70508248,-0.5582203909090908,0.0037835,0,0,145.0183925244785,144.69416129684112,85.47243043279201,80.60085711057502,83.03664377168352,157.1722217616333,111.62594379799084,45.54627796364244,2.847231474929164,1.412970332273232,mp-10244,10244
881,Mg(AlS2)2,3.3818961,-1.4478153032142862,0.0014064,0,0,30.830808827486447,6.383326625351387,18.59272817762769,4.220733724969024,11.406730951298357,157.1722217616333,111.62594379799084,45.54627796364244,2.847231474929164,1.412970332273232,mp-16755,16755
882,CaHg,2.82027647,-0.5521203774999999,0.00029,0,0,35.02446618075834,35.02446618075833,20.597218885122853,18.396894976527868,19.49705693082536,157.1722217616333,111.62594379799084,45.54627796364244,2.847231474929164,1.412970332273232,mp-11286,11286
883,CdAu,3.93075192,-0.16032053944444435,0.0002857111111111111,0,0,91.73633736726498,91.68979041604739,25.154521295025628,18.79321777622307,21.97386953562435,157.1722217616333,111.62594379799084,45.54627796364244,2.847231474929164,1.412970332273232,mp-16886,16886
884,Hf3(NiGe)4,7.59619366,-0.6675136600000012,0.0028509,0,0,159.9357207463573,159.49196535028932,88.20035867159446,86.52481846009134,87.3625885658429,157.1722217616333,111.62594379799084,45.54627796364244,2.847231474929164,1.412970332273232,mp-10076,10076
885,BaSe,1.13655998,-2.283762816171875,9.6e-05,0,0,35.619828430420775,35.619828430420775,22.925933094377513,20.065612916387963,21.495773005382738,14.129322270040882,8.835267593375297,5.294054676665586,2.300881282610119,1.412970332273232,mp-1253,1253
886,As2O3,0.43351421,-1.6290845505000007,0.0004419,0,0,12.490043221587463,7.081058386231561,10.084542382925724,6.071340649157162,8.077941516041443,6.566261253333334,3.156138866666667,3.4101223866666666,1.8466516690125039,1.412970332273232,mp-1581,1581
887,B12W,7.64580402,0.20553002307692317,6.17e-05,0,0,238.61511993074615,238.6151199307462,147.89812496597145,81.8818318732957,114.88997841963356,157.1722217616333,111.62594379799084,45.54627796364244,2.847231474929164,1.412970332273232,mp-1001602,1001602
888,AlCr2,7.5724448,-0.12225259999999949,0.1650259,2,1,186.87144230064584,185.66240865005932,103.38227006496916,101.97115793936273,102.67671400216594,157.1722217616333,111.62594379799084,45.54627796364244,2.847231474929164,1.412970332273232,mp-1699,1699
889,Li,-0.19686854,0.0051269066666665974,0.0001077,0,0,14.012876973397635,14.012876973397633,6.94013713002579,2.0201810591690403,4.480159094597415,157.1722217616333,111.62594379799084,45.54627796364244,2.847231474929164,1.412970332273232,mp-135,135
890,TlCuSe2,3.49387007,-0.47079215200520785,0.0002476,0,0,46.74945573685326,46.645385283119666,19.488389959974327,15.627710191403924,17.558050075689124,157.1722217616333,111.62594379799084,45.54627796364244,2.847231474929164,1.412970332273232,mp-14090,14090
891,ScNi4Sn,8.48580346,-0.4121876833333336,0.0046438,0,0,152.39406091331068,152.39406091331068,58.069865123705796,52.70009348756861,55.3849793056372,157.1722217616333,111.62594379799084,45.54627796364244,2.847231474929164,1.412970332273232,mp-11808,11808
892,Zn(WO2)2,3.63526978,-1.590830668571429,4.99976585,4,4,143.48429422521403,135.19382602104807,49.6964996973816,41.70370998017509,45.700104838778344,157.1722217616333,111.62594379799084,45.54627796364244,2.847231474929164,1.412970332273232,mp-1042578,1042578
893,AlCu3,7.83954483,-0.18943919375000018,4.625e-05,0,0,133.06408059176638,132.99149050372827,48.35928654774137,43.12647234978312,45.742879448762245,157.1722217616333,111.62594379799084,45.54627796364244,2.847231474929164,1.412970332273232,mp-12802,12802
894,RbCuO,1.22177299,-0.19053746749999986,9.14e-05,0,0,37.95726284044123,37.95726284042319,-175.38568145592092,81.55196357441378,-46.91685894075357,157.1722217616333,111.62594379799084,45.54627796364244,2.847231474929164,1.412970332273232,mp-1008807,1008807
895,TiHg,5.14235433,-0.00923949916666622,0.8832801,1,1,104.22843914709392,104.1648746792807,53.3159459205793,44.21268966011937,48.76431779034934,157.1722217616333,111.62594379799084,45.54627796364244,2.847231474929164,1.412970332273232,mp-1526,1526
896,VTe,7.3292439,-0.37814109249999994,2.5265824,2,1,62.5956066308095,60.702825269381194,42.19263464297683,36.33882389420823,39.26572926859253,157.1722217616333,111.62594379799084,45.54627796364244,2.847231474929164,1.412970332273232,mp-10256,10256
897,SrCuAs,4.6657484,-0.8056819005555559,0.0008023,0,0,58.20204932154463,54.78675717066113,42.02136087049283,40.116644364481914,41.06900261748737,157.1722217616333,111.62594379799084,45.54627796364244,2.847231474929164,1.412970332273232,mp-12557,12557
898,Al9Co2,7.68862556,-0.33188332454545455,4.76e-05,0,0,106.67024093587558,105.53331985755189,74.7545466134841,72.95961672526043,73.85708166937226,157.1722217616333,111.62594379799084,45.54627796364244,2.847231474929164,1.412970332273232,mp-16488,16488
899,CdAu3,4.30501554,-0.13013369999999957,0.0001412,0,0,115.71734498927081,115.71734498927079,18.48937082676885,11.89674444485393,15.19305763581139,157.1722217616333,111.62594379799084,45.54627796364244,2.847231474929164,1.412970332273232,mp-1264,1264
900,MgSbPt,6.29076169,-0.7106600066666667,3.35e-05,0,0,88.69314272300008,88.69314272300007,35.48638109045222,34.81552327483104,35.15095218264163,157.1722217616333,111.62594379799084,45.54627796364244,2.847231474929164,1.412970332273232,mp-10184,10184
901,MoS2,-0.09684578,-1.2004643237500001,8.245e-05,0,0,29.5965102333684,1.7732836093631799,20.41637663414186,0.3061582105076386,10.36126742232475,157.1722217616333,111.62594379799084,45.54627796364244,2.847231474929164,1.412970332273232,mp-1023939,1023939
902,LiCd,1.47917809,-0.2508932241666666,0.0025835,0,0,34.83369571807843,34.83369571807842,20.748918523169085,9.724384830273051,15.236651676721067,157.1722217616333,111.62594379799084,45.54627796364244,2.847231474929164,1.412970332273232,mp-1437,1437
903,O2,-2.0258011,0.0017175900000001576,1.9990628,2,1,2.2895450846977905,2.9800995704069932,0.541935085953994,0.5224768060656678,0.532205946009831,157.1722217616333,111.62594379799084,45.54627796364244,2.847231474929164,1.412970332273232,mp-1009490,1009490
904,Co2Ge,7.32896216,-0.09763733666666734,0.1866818,4,2,200.86642685242998,198.93659524536034,58.38187654929106,44.001456048462224,51.19166629887664,157.1722217616333,111.62594379799084,45.54627796364244,2.847231474929164,1.412970332273232,mp-1667,1667
905,CaTe,3.67271973,-1.8593393850000002,0.0003154,0,0,35.98909077393668,35.989090773936674,24.9481792826429,22.846173512406875,23.897176397524888,12.958317703196242,6.366027223197281,6.592290479998961,2.5675456140055157,1.412970332273232,mp-1519,1519
906,Zr2Si,5.65898039,-0.7529295450000006,0.0012039,0,0,126.22564234527603,126.18006398100208,88.13006146572573,85.99671536213991,87.06338841393281,157.1722217616333,111.62594379799084,45.54627796364244,2.847231474929164,1.412970332273232,mp-1278,1278
907,Mo2O5,2.30543408,-1.8886828071428567,2.0000237,4,2,120.04922072286705,101.05701002961615,42.4752101048761,34.91248024572451,38.693845175300304,157.1722217616333,111.62594379799084,45.54627796364244,2.847231474929164,1.412970332273232,mp-1412716,1412716
908,NbTe2,6.23010781,-0.7424425533333334,0.00011893333333333333,0,0,35.109810926621954,21.698065088221817,24.084245424115057,15.452224937886283,19.76823518100067,157.1722217616333,111.62594379799084,45.54627796364244,2.847231474929164,1.412970332273232,mp-11675,11675
909,MgPd3,4.49006379,-0.49616526500000013,6.4e-05,0,0,130.33817468175098,129.72581148881346,47.57829745586496,30.55240864767866,39.06535305177181,157.1722217616333,111.62594379799084,45.54627796364244,2.847231474929164,1.412970332273232,mp-12742,12742
910,Ba2TlBi2O7,2.11552901,-1.8610394081944446,0.7327899,1,3,32.3819035050262,19.50378179668674,12.414062962407932,-4.016179282016507,4.198941840195713,157.1722217616333,111.62594379799084,45.54627796364244,2.847231474929164,1.412970332273232,mp-1046056,1046056
911,SiO2,9.17825795,-1.994889146666667,3.96e-05,0,0,266.5824935038339,266.5824935038339,138.4549071438519,-204.1923061404152,-32.86869949828166,157.1722217616333,111.62594379799084,45.54627796364244,2.847231474929164,1.412970332273232,mp-10064,10064
912,Ag3Ge5P6,4.96125876,-0.028608521785713492,0.009609,0,0,64.90887161418063,64.90887161418063,37.49685168185501,33.90765566089549,35.70225367137525,21.0713526066338,2.5238719499671447,18.547480656666654,4.306678610793549,0.15034119906149487,mp-17862,17862
913,FeSi2,9.10604776,-0.39564202000000037,2.75e-07,0,0,181.3592923073506,179.96051394459744,127.54597319295432,127.06196796313144,127.30397057804288,44.952691479109326,20.317446819109332,24.63524466,4.963390440011747,1.412970332273232,mp-1714,1714
914,MgFe2O5,0.45507484,-1.626382340000001,8.0000548,8,4,87.5654209079048,86.48334241436542,31.980018401818736,20.732240586851773,26.356129494335256,157.1722217616333,111.62594379799084,45.54627796364244,2.847231474929164,1.412970332273232,mp-1043236,1043236
915,Hf3(Cu2Ge)2,6.81535991,-0.43484780444444404,0.0008642,0,0,143.2000343064703,142.92719233572254,76.86415613616201,71.83382881730047,74.34899247673124,157.1722217616333,111.62594379799084,45.54627796364244,2.847231474929164,1.412970332273232,mp-10379,10379
916,Mg(Co3P2)2,8.33647654,-0.6349811012121207,0.0013212,0,0,203.00664551434244,202.73574623361728,99.82619904368764,98.07546184894612,98.95083044631687,157.1722217616333,111.62594379799084,45.54627796364244,2.847231474929164,1.412970332273232,mp-10924,10924
917,AsPdSe,4.66294797,-0.5141418857812496,2.315e-05,0,0,93.7064542221702,93.70645422217021,35.902172271931995,34.2594178898121,35.08079508087205,157.1722217616333,111.62594379799084,45.54627796364244,2.847231474929164,1.412970332273232,mp-10849,10849
918,HfPt3,7.53240131,-1.089633689374999,6.93e-05,0,0,232.92533836376683,232.9209426952686,106.64147511430994,104.99108254997758,105.81627883214375,157.1722217616333,111.62594379799084,45.54627796364244,2.847231474929164,1.412970332273232,mp-11456,11456
919,HfGaAu,5.57562515,-0.5117798374999994,0.00022555,0,0,133.6638679830392,127.86211101500454,62.37250256594718,60.96498424358426,61.66874340476572,157.1722217616333,111.62594379799084,45.54627796364244,2.847231474929164,1.412970332273232,mp-12952,12952
920,Fe3C,5.9515406,0.055299538749999044,5.91423235,6,1,197.82070842036734,197.7694166982566,92.09034924179592,89.26643411817061,90.67839167998326,157.1722217616333,111.62594379799084,45.54627796364244,2.847231474929164,1.412970332273232,mp-13154,13154
921,ScAgSe2,3.7933684,-1.3251970365885422,0.001278,0,0,62.48602931477823,62.48580247184134,21.358597206701333,17.595301671631344,19.47694943916634,28.017619069997277,15.765992659997274,12.25162641,3.5002323365742454,1.412970332273232,mp-12908,12908
922,HoGa2,3.77533412,-0.6267823483333329,0.0186512,0,0,79.36212748010156,71.41957927562423,54.48727065844404,52.24341620621016,53.3653434323271,157.1722217616333,111.62594379799084,45.54627796364244,2.847231474929164,1.412970332273232,mp-1256,1256
923,CaTi2O4,7.05688369,-3.301700465595237,1.674752625,8,2,158.23468842759465,156.0859447471313,88.12877454298514,86.85900166879433,87.49388810588974,157.1722217616333,111.62594379799084,45.54627796364244,2.847231474929164,1.412970332273232,mp-1345518,1345518
924,Ti4O5,7.98100221,-3.091059832037038,0.002956,0,0,207.61471769438842,206.4261268773642,101.56125077859981,82.93893172853282,92.25009125356632,157.1722217616333,111.62594379799084,45.54627796364244,2.847231474929164,1.412970332273232,mp-10734,10734
925,TePt,7.13802148,-0.556262845,1.755e-05,0,0,55.32233369074489,39.75999283069377,23.231260668709503,18.732518526668585,20.981889597689044,157.1722217616333,111.62594379799084,45.54627796364244,2.847231474929164,1.412970332273232,mp-11693,11693
926,TiCdO3,1.77877982,-2.6788850566666667,1.23e-05,0,0,153.38953064133364,146.85808316164847,53.45951817136992,43.464701020233605,48.46210959580176,23.727993309901994,17.99267263656866,5.735320673333334,2.39485295442817,1.412970332273232,mp-13641,13641
927,V3Te4,6.66379999,-0.5582238228571431,6.9989802,3,2,53.27147828268475,53.09590050427994,34.37258668448688,31.890270964918372,33.131428824702624,157.1722217616333,111.62594379799084,45.54627796364244,2.847231474929164,1.412970332273232,mp-1028,1028
928,LaAl,7.74291283,-0.41150694124999987,0.000222275,0,0,53.38472394145295,52.360743774289794,34.438343012099494,33.50099270241071,33.969667857255104,157.1722217616333,111.62594379799084,45.54627796364244,2.847231474929164,1.412970332273232,mp-12684,12684
929,KSbO3,2.72238209,-2.0085983585999996,0.000602525,0,0,112.4958171161708,112.49581711617083,74.78040358347238,71.67863758754321,73.2295205855078,157.1722217616333,111.62594379799084,45.54627796364244,2.847231474929164,1.412970332273232,mp-16293,16293
930,LiNbN2,2.41539014,-1.0750528120833334,0.000124,0,0,119.81990917689728,103.71936260952387,66.13204068950644,50.47118785100506,58.301614270255754,84.33003217666668,74.74420691666667,9.585825259999998,3.0960983931393393,1.412970332273232,mp-1029903,1029903
931,SiRh,9.56762143,-0.7475253550000005,1.8825e-05,0,0,221.45136596369198,221.45136596369204,83.80459380057668,82.76954203656328,83.28706791856999,157.1722217616333,111.62594379799084,45.54627796364244,2.847231474929164,1.412970332273232,mp-1483,1483
932,KNa2Sb,2.22797509,-0.4730722865258623,0.0002427,0,0,19.50676153653304,19.50676153653304,12.945406049398233,12.047016737652509,12.496211393525371,19.40667159333014,10.263400146663493,9.143271446666649,3.0237842923506713,1.412970332273232,mp-15724,15724
933,MnCN2,4.23206654,-0.16906269198275936,4.9998485,1,1,104.8699348318969,86.2958480262549,38.5254334031092,27.228351551510823,32.87689247731001,14.885214373336455,9.485543923336456,5.3996704499999995,2.3237190987724827,1.412970332273232,mp-12335,12335