,formula_pretty,efermi,formation_energy_per_atom,total_magnetization_normalized_formula_units,num_magnetic_sites,num_unique_magnetic_sites,k_voigt,k_reuss,g_voigt,g_reuss,g_vrh,e_total,e_ionic,e_electronic,n,e_ij_max,material_id,b
1397,Si,7.11477529,0.16002296250000025,1.51375e-05,0,0,83.34494985489398,83.34494985484427,63.866414121459606,63.85692180887242,63.86166796516601,157.1722217616333,111.62594379799084,45.54627796364244,2.847231474929164,1.412970332273232,mp-168,168
1398,Al3Cu2,8.15920573,-0.15831442399999957,0.0034705,0,0,102.14142009164851,102.13820302976357,53.31254998140096,36.86157961482879,45.08706479811488,157.1722217616333,111.62594379799084,45.54627796364244,2.847231474929164,1.412970332273232,mp-10886,10886
1399,Na2ZnS2,1.06362261,-1.1858752308706897,0.00017235,0,0,31.50661769226443,29.415262824635597,15.067257767735368,13.385907799424595,14.226582783579982,10.994786833333334,6.57487586,4.419910973333334,2.1023584312227386,1.412970332273232,mp-1024067,1024067
1400,PdS2,3.08151392,-0.6052978995833337,8.3e-06,0,0,40.70518452583714,4.026783338760088,30.771763202548037,2.8190603038203013,16.79541175318417,11.537521243333332,0.6372762333333334,10.90024501,3.301551909329914,1.412970332273232,mp-13682,13682
1401,YAl2Ni,6.24032105,-0.6469080216666665,1.335e-05,0,0,92.59940896065537,89.69975846561229,59.475491890624426,54.918519487949546,57.19700568928698,157.1722217616333,111.62594379799084,45.54627796364244,2.847231474929164,1.412970332273232,mp-13094,13094
1402,MgNi3C,6.56970386,-0.13670492599999945,0.0387875,0,0,175.6175469279073,175.6175469279073,65.59795052723435,52.211637452103886,58.904793989669116,157.1722217616333,111.62594379799084,45.54627796364244,2.847231474929164,1.412970332273232,mp-10700,10700
1403,Zn2SbN3,4.26428226,-0.029826820833333063,4.905e-05,0,0,131.6267862673683,131.53270522394027,65.10529514650345,63.33015853320337,64.21772683985341,58.49509917,6.095749233333334,52.399349936666674,7.238739526786875,0.7445749527079191,mp-1029334,1029334
1404,ScGa,3.69856263,-0.6025011662499997,0.01472275,0,0,76.17412738323088,75.07358827367567,47.83317370084443,36.53699856842116,42.1850861346328,157.1722217616333,111.62594379799084,45.54627796364244,2.847231474929164,1.412970332273232,mp-11411,11411
1405,Ag,3.23203462,0.0075411533333333836,2.62e-05,0,0,87.561068655216,87.5204672477491,28.550871110066694,27.25182972119984,27.901350415633267,157.1722217616333,111.62594379799084,45.54627796364244,2.847231474929164,1.412970332273232,mp-10597,10597
1406,Yb(FeP3)4,7.62196364,-0.5575667752941175,0.0085505,0,0,150.3937057004306,150.39370570043056,108.471976997738,108.40588822230806,108.43893261002303,157.1722217616333,111.62594379799084,45.54627796364244,2.847231474929164,1.412970332273232,mp-12956,12956
1407,AlCrFe2,7.60361047,-0.16422231499999995,0.997566,3,2,239.46024182937103,239.46024182937103,102.05267366452681,91.17351158257851,96.61309262355266,157.1722217616333,111.62594379799084,45.54627796364244,2.847231474929164,1.412970332273232,mp-16495,16495
1408,Ca6FeN5,3.96416203,-0.9326912583333341,2.9889871,2,1,76.24642971241838,76.20718343406809,37.49896087744423,33.70141725015981,35.60018906380202,157.1722217616333,111.62594379799084,45.54627796364244,2.847231474929164,1.412970332273232,mp-16916,16916
1409,Cs4ZnO3,1.71505955,-1.422118927090517,0.000215275,0,0,18.959983052712037,17.84300350125777,8.235554892388935,7.789388067656229,8.012471480022581,157.1722217616333,111.62594379799084,45.54627796364244,2.847231474929164,1.412970332273232,mp-1019612,1019612
1410,Nb3Rh,5.50158292,-0.2547317625000005,0.00021655,0,0,203.72400703677462,203.7240070367746,95.17517356990362,82.90896496128914,89.04206926559638,157.1722217616333,111.62594379799084,45.54627796364244,2.847231474929164,1.412970332273232,mp-1545,1545
1411,PdF4,-2.03416089,-1.4989163859999999,0.00011375,0,0,41.360980167792206,28.39177926625292,19.53953042108486,14.574201669184157,17.05686604513451,6.218744339956285,0.7195384866065752,5.499205853349711,2.345038561164765,0.6939793948865549,mp-13868,13868
1412,Mg2Rh,4.93751259,-0.4210671933333335,0.000926,0,0,74.31999082852951,56.677736441573366,47.43618998481217,32.3086372583349,39.87241362157353,157.1722217616333,111.62594379799084,45.54627796364244,2.847231474929164,1.412970332273232,mp-12693,12693
1413,LaAu,7.23998722,-0.8209628025000004,0.0001239,0,0,65.01403026938544,64.21175299657591,18.89333348150621,13.100595649174066,15.99696456534014,157.1722217616333,111.62594379799084,45.54627796364244,2.847231474929164,1.412970332273232,mp-1002136,1002136
1414,Ce(P3Ru)4,8.72263596,-0.684143455,0.0037259,1,1,167.06875707400576,167.06875707400576,109.6948623297178,109.69159678325309,109.69322955648545,157.1722217616333,111.62594379799084,45.54627796364244,2.847231474929164,1.412970332273232,mp-10069,10069
1415,TiCr2,6.16787702,-0.10441789777777781,0.0030934,0,0,198.9108158276996,198.91081582769957,75.13565718473644,74.6436674886003,74.88966233666838,157.1722217616333,111.62594379799084,45.54627796364244,2.847231474929164,1.412970332273232,mp-1425,1425
1416,WSe2,1.53367416,-0.8720555082291668,4.075e-06,0,0,32.38913555892741,2.8455376029638297,24.0855277692091,1.4025207751361257,12.744024272172613,157.1722217616333,111.62594379799084,45.54627796364244,2.847231474929164,1.412970332273232,mp-1028698,1028698
1417,YAl2Co,5.64710508,-0.5433686504166673,0.0016496,0,0,92.54735599789498,85.91040475138111,49.05276288345524,41.92146074805789,45.48711181575656,157.1722217616333,111.62594379799084,45.54627796364244,2.847231474929164,1.412970332273232,mp-16493,16493
1418,Mo(WSe3)2,1.21929338,-0.9096646571180556,0.0001577,0,0,29.772349905016128,1.636223048991466,22.05490980753943,1.7697167634654754,11.912313285502453,157.1722217616333,111.62594379799084,45.54627796364244,2.847231474929164,1.412970332273232,mp-1025575,1025575
1419,NbNi3,7.77551594,-0.2842094924999996,0.0017363,0,0,209.46168398782805,209.46128932477797,93.27586732901281,84.59893061989192,88.93739897445236,157.1722217616333,111.62594379799084,45.54627796364244,2.847231474929164,1.412970332273232,mp-11513,11513
1420,Mn2ZnO4,2.79770841,-1.9823252001231526,0.0,4,1,139.33621427154503,135.34302200305768,64.1736637980743,57.51177894131588,60.84272136969509,157.1722217616333,111.62594379799084,45.54627796364244,2.847231474929164,1.412970332273232,mp-18751,18751
1421,LiAl3,6.08130503,-0.10163692583333361,0.0002926,0,0,64.08862023532521,64.08862023532522,44.368857017741284,43.228891440880005,43.79887422931064,157.1722217616333,111.62594379799084,45.54627796364244,2.847231474929164,1.412970332273232,mp-10890,10890
1422,Be5Au,6.20629486,-0.08535223250000001,0.0029452,0,0,137.57807067270278,137.57807067270278,120.14178093797861,119.55757837781388,119.84967965789625,157.1722217616333,111.62594379799084,45.54627796364244,2.847231474929164,1.412970332273232,mp-1220,1220
1423,SnS2,2.50436842,-0.7100808770833336,1.6e-06,0,0,27.49315344252507,1.7294925250164193,19.52486338557488,1.1613207509411714,10.343092068258025,16.000249023170376,7.196048743170375,8.804200280000002,2.9671872674302175,1.412970332273232,mp-1170,1170
1424,Be2B,4.79997553,0.041492540277777934,0.0011811,0,0,149.66640770552607,149.66640770552607,98.82306558406843,88.9916574280789,93.90736150607367,157.1722217616333,111.62594379799084,45.54627796364244,2.847231474929164,1.412970332273232,mp-1432,1432
1425,SrLiP,3.04941321,-0.903127787777778,0.0003734,0,0,43.01516714320225,42.76967044463554,31.515164705066415,27.672435675506303,29.59380019028636,21.133730456542207,12.771475046542202,8.362255410000001,2.891756457587672,0.877187206711006,mp-10614,10614
1426,ZnSnF6,-1.91149215,-2.75044716625,6.27e-05,0,0,27.081991037078318,19.883977528647574,28.091323660274963,18.780851114067573,23.43608738717127,6.302101780000871,3.976137696667538,2.325964083333333,1.5251111708112735,1.412970332273232,mp-13903,13903
1427,V2Zn2O7,0.13398467,-2.138217363181818,0.0002577,0,0,116.63200434795915,104.52144748338507,28.94312559987787,14.099201043313887,21.52116332159588,157.1722217616333,111.62594379799084,45.54627796364244,2.847231474929164,1.412970332273232,mp-18807,18807
1428,CoS2,2.66345532,-0.5740844837500004,0.3546297,1,1,79.42672163939066,62.79750887587042,28.057845922049015,10.100495067475924,19.07917049476247,157.1722217616333,111.62594379799084,45.54627796364244,2.847231474929164,1.412970332273232,mp-1387852,1387852
1429,Sb7Mo3,8.47011274,-0.14801329300000035,0.0005128,0,0,107.8180022548281,107.81800225482813,55.42439616924778,53.895344912755554,54.659870541001666,157.1722217616333,111.62594379799084,45.54627796364244,2.847231474929164,1.412970332273232,mp-1521,1521
1430,Al,7.05880371,0.0,0.0004155,0,0,83.27702046970406,83.27702046970407,25.309158923150303,22.391215243843835,23.85018708349707,157.1722217616333,111.62594379799084,45.54627796364244,2.847231474929164,1.412970332273232,mp-134,134
1431,Zr2Fe3Si,6.03667151,-0.5210699216666667,3.93074385,10,2,165.60002379710926,164.4133076538825,94.87882522731726,91.25101554621219,93.06492038676473,157.1722217616333,111.62594379799084,45.54627796364244,2.847231474929164,1.412970332273232,mp-16336,16336
1432,YAlPd,5.31030903,-0.8802337100000004,0.0001763,0,0,94.16483986810886,91.60181004035934,32.665703289042135,10.574268262953396,21.619985775997765,157.1722217616333,111.62594379799084,45.54627796364244,2.847231474929164,1.412970332273232,mp-12961,12961
1433,LaCuSe2,5.96075017,-1.5713276717968752,0.00649195,0,0,57.6033321056848,55.87832895313642,29.9282201144593,28.10957099135919,29.018895552909242,21.690906943333335,11.098377703333336,10.592529240000001,3.2546166041486364,1.412970332273232,mp-11790,11790
1434,NaNiN,3.43337169,-0.09669965468390807,2.1175e-05,0,0,60.91352710132686,47.916369764249175,26.045979472433153,53.105970318788565,39.575974895610855,597.7490176000001,7.072470630000001,590.6765469700001,24.303838111911464,1.412970332273232,mp-1029466,1029466
1435,SrMg2N2,3.51948279,-0.839982723333334,0.0007563,0,0,94.17975482135856,94.16246608905165,71.84491459479533,68.53519285904046,70.1900537269179,18.541896489996542,12.372810169996539,6.169086320000003,2.483764546006727,1.412970332273232,mp-10550,10550
1436,CsNaICl,-0.82995625,-1.77867648987069,1.1e-06,0,0,12.378274835248522,11.107001992878576,6.797464443445853,4.985708443665406,5.89158644355563,157.1722217616333,111.62594379799084,45.54627796364244,2.847231474929164,1.412970332273232,mp-1021431,1021431
1437,BeC2,2.44393183,0.84641468,3.2e-05,0,0,120.09909154842421,45.33320108345932,63.16153713591137,26.30553337813473,44.73353525702305,157.1722217616333,111.62594379799084,45.54627796364244,2.847231474929164,1.412970332273232,mp-1001023,1001023
1438,KPtN,1.88683398,-0.2088451726666669,0.0017853,0,0,83.35698943237075,45.60425915740133,48.1521149189862,20.73533712598632,34.44372602248626,8.475048920959804,1.8171508273878072,6.657898093571997,2.5802903118781026,1.412970332273232,mp-1029347,1029347
1439,KZnSb,2.37522488,-0.45439737100000005,0.0002299,0,0,27.05793179627388,20.899040305175866,18.76617947558009,12.953582387439079,15.859880931509583,22.974013259966014,4.563730906632682,18.41028235333333,4.29072049349912,0.30665100186108735,mp-10161,10161
1440,V3Ge,6.98700601,-0.33502465250000046,0.35270295,6,1,183.80805724813686,183.8080572481369,54.41399589184903,54.05011256384408,54.232054227846554,157.1722217616333,111.62594379799084,45.54627796364244,2.847231474929164,1.412970332273232,mp-1221,1221
1441,TiB2,8.46049915,-1.0556660338888892,0.000268,0,0,255.93712569947326,250.64615022182284,255.71198612639472,249.78002960284806,252.7460078646214,157.1722217616333,111.62594379799084,45.54627796364244,2.847231474929164,1.412970332273232,mp-1145,1145
1442,MoPt3,8.11150353,-0.12026009500000079,1.9845589,1,1,245.696332246704,245.69633224670397,107.73373093969194,100.55088976422834,104.14231035196013,157.1722217616333,111.62594379799084,45.54627796364244,2.847231474929164,1.412970332273232,mp-13100,13100
1443,TiO,7.3485241,-2.8652158461666675,6.7600000000000005e-06,0,0,195.8858139263138,193.9488986362946,109.1920097459947,102.70277648937123,105.94739311768296,157.1722217616333,111.62594379799084,45.54627796364244,2.847231474929164,1.412970332273232,mp-1203,1203
1444,Na2HfN2,2.36176281,-0.8947775766206888,7.09e-05,0,0,55.480126234232586,20.073092241568883,38.37316890862981,4.781389448471712,21.57727917855076,157.1722217616333,111.62594379799084,45.54627796364244,2.847231474929164,1.412970332273232,mp-1029309,1029309
1445,GePd,6.53542781,-0.4611656774999995,2.07e-05,0,0,122.9460183080195,122.53488782603578,52.191151861727384,36.99867693129431,44.594914396510845,157.1722217616333,111.62594379799084,45.54627796364244,2.847231474929164,1.412970332273232,mp-1424,1424
1446,HfC,3.71234859,-0.29839561500000045,0.000137,0,0,163.43913044326945,163.43913044326925,41.05679036183487,22.878689868911746,31.96774011537331,23.954679956666677,7.78076273666667,16.173917220000003,4.021680894849815,0.06276666666666657,mp-1002124,1002124
1447,Na3PS3O,1.3160287,-1.500918565295438,0.00063205,0,0,27.210917646668857,27.06562728654243,13.029644288722142,12.20441213219946,12.617028210460802,9.26713179,5.808482850000001,3.45864894,1.859744321136645,0.4244737440643414,mp-11738,11738
1448,CsVN2,3.03880376,-0.9158711057327595,4.105e-05,0,0,104.269555796666,104.269555796666,45.78642026209653,41.113524406388386,43.44997233424246,74.33247609333337,55.35947379333336,18.973002300000015,4.355800994076751,1.412970332273232,mp-1029293,1029293
1449,Ge2Pt,6.28816702,-0.3401975716666665,0.00210985,0,0,120.47619737573996,110.352541551706,55.24466835173821,48.077099955582995,51.660884153660604,157.1722217616333,111.62594379799084,45.54627796364244,2.847231474929164,1.412970332273232,mp-1543,1543
1450,TmAgTe2,4.72737606,-1.0837420108333333,0.0013318,0,0,48.82749563915587,48.81638865680691,18.73346764926946,16.73800695325183,17.735737301260645,157.1722217616333,111.62594379799084,45.54627796364244,2.847231474929164,1.412970332273232,mp-12953,12953
1451,CoAs,6.84485497,-0.2696237900000007,1.085e-05,0,0,163.60309443320978,163.45056918436555,77.45639049343205,71.43442729077248,74.44540889210226,157.1722217616333,111.62594379799084,45.54627796364244,2.847231474929164,1.412970332273232,mp-15679,15679
1452,As,4.78423225,0.0,0.0007335,0,0,51.296294668887185,29.169475597071376,34.56697618703861,21.262844289608854,27.914910238323735,157.1722217616333,111.62594379799084,45.54627796364244,2.847231474929164,1.412970332273232,mp-11,11
1453,Ca3SiO,4.44313792,-1.5981094470000001,1.4e-06,0,0,58.336315568233395,58.29455148418753,44.19452880756789,44.03910467178033,44.11681673967411,157.1722217616333,111.62594379799084,45.54627796364244,2.847231474929164,1.412970332273232,mp-11649,11649
1454,HfGeTe,7.64200911,-0.8056413966666666,0.00096795,0,0,95.27673396566887,94.67795076385319,63.839625529905426,59.20043798084911,61.52003175537727,157.1722217616333,111.62594379799084,45.54627796364244,2.847231474929164,1.412970332273232,mp-13964,13964
1455,NbSiPt,8.26304721,-0.774564354166665,0.000666325,0,0,215.25991863365542,214.64566787185396,81.89363844475862,79.22122283458346,80.55743063967104,157.1722217616333,111.62594379799084,45.54627796364244,2.847231474929164,1.412970332273232,mp-10469,10469
1456,Zn(GaSe2)2,1.5741208,-0.9152755777678573,0.0001149,0,0,36.91823329086283,36.67163856551644,25.363505419969112,22.104285831528983,23.73389562574905,11.027323232416714,3.3451669495737284,7.682156282842986,2.7716703055816336,0.053250732221822125,mp-15776,15776
1457,ScCd,3.63347964,-0.2901624574999997,0.0001293,0,0,67.04158082899133,67.0415808289913,38.41090347289263,22.306260722397127,30.358582097644877,157.1722217616333,111.62594379799084,45.54627796364244,2.847231474929164,1.412970332273232,mp-1211,1211
1458,Te2O5,3.24807347,-1.4178695207142857,0.00017935,0,0,54.76787831492627,37.62626918917221,46.299122727808246,31.201230462547073,38.75017659517766,15.992516960000003,11.040941756666669,4.951575203333335,2.225213518593965,1.2470260187118802,mp-12177,12177
1459,Ti3AlN,7.20784907,-1.017868215,0.004625,0,0,163.27103934795673,163.2710393479567,47.66500283999197,42.04889946541752,44.856951152704745,157.1722217616333,111.62594379799084,45.54627796364244,2.847231474929164,1.412970332273232,mp-10675,10675
1460,Ca3FeN3,4.24420358,-0.9280640621428569,2.26813985,2,1,76.59391604286333,75.59256807235202,46.76977061416325,46.39094873417067,46.58035967416696,157.1722217616333,111.62594379799084,45.54627796364244,2.847231474929164,1.412970332273232,mp-1029659,1029659
1461,Li3InN2,3.7960138,-0.44553923750000024,0.001221275,0,0,85.58064157643577,85.58064157643575,60.365773457648864,56.510431968777695,58.43810271321328,17.98396652,11.53904196,6.444924560000003,2.5386855969182167,1.412970332273232,mp-1029562,1029562
1462,CaAl4,5.64549373,-0.19479040400000044,0.0008887,0,0,57.68697563390942,56.158036193890204,28.640424307807404,27.0366756225297,27.838549965168554,157.1722217616333,111.62594379799084,45.54627796364244,2.847231474929164,1.412970332273232,mp-1749,1749
1463,ZrBeSi,6.36478443,-0.7225251083333326,1.75e-06,0,0,139.02171338084906,137.4513636375783,117.31694902656237,114.96678344135724,116.1418662339598,157.1722217616333,111.62594379799084,45.54627796364244,2.847231474929164,1.412970332273232,mp-10200,10200
1464,Na6WN4,2.35437803,-0.4146236258463951,0.00031815,0,0,54.84253064838746,54.451844791578914,37.69073120872483,37.17043669306082,37.430583950892824,12.983069706666663,8.599783873333331,4.383285833333333,2.0936298224216556,1.412970332273232,mp-1029656,1029656
1465,ZnCo3C,5.07909638,-0.017678176999999805,1.0436665,3,1,216.75384303563345,216.75384303563345,117.37215665254449,108.80405742886555,113.08810704070501,157.1722217616333,111.62594379799084,45.54627796364244,2.847231474929164,1.412970332273232,mp-10271,10271
1466,HfTe5,4.63739128,-0.817208881666667,0.00072065,0,0,19.840770837175203,4.727845065054861,14.103953291256667,-0.11112627066036802,6.99641351029815,157.1722217616333,111.62594379799084,45.54627796364244,2.847231474929164,1.412970332273232,mp-1168,1168
1467,TiTl2F6,-0.36563722,-3.057929566111111,0.000955,0,0,26.110975139346724,24.27877716900947,8.161200026694369,6.458720769093211,7.309960397893789,42.08191676664921,39.01665675998254,3.0652600066666658,1.7507883957425197,1.412970332273232,mp-10402,10402
1468,Be12Ag,4.73803069,0.11012356102564033,0.0734455,0,0,112.99640211640774,112.77722339443712,55.55345810508378,7.819864967399033,31.686661536241406,157.1722217616333,111.62594379799084,45.54627796364244,2.847231474929164,1.412970332273232,mp-12665,12665
1469,DyTe2,6.91219751,-1.4270042783333334,1.61e-05,0,0,59.14034099624314,59.13320638073314,26.426769670415933,23.684880751850407,25.05582521113317,157.1722217616333,111.62594379799084,45.54627796364244,2.847231474929164,1.412970332273232,mp-1018679,1018679
1470,Fe3N,6.23717804,-0.15822943000000045,6.17849555,6,1,206.76492689625553,206.5422241270755,95.92666810709042,95.11324567526223,95.51995689117632,157.1722217616333,111.62594379799084,45.54627796364244,2.847231474929164,1.412970332273232,mp-1804,1804
1471,CaCuF4,0.67177732,-3.0418713758333342,1.00128525,2,1,75.92769373927288,74.42119355001994,34.525780106525445,33.62820606038579,34.07699308345562,7.276307003058695,4.654188376198683,2.622118626860012,1.6192957193977917,1.412970332273232,mp-12266,12266
1472,SiO2,1.91834761,-3.226712848749999,2.99125e-05,0,0,106.87218818852222,99.6548648699002,62.269123702414184,55.10810832504028,58.68861601372723,157.1722217616333,111.62594379799084,45.54627796364244,2.847231474929164,1.412970332273232,mp-11684,11684
1473,Mg(CuO2)2,2.18182512,-1.4805366178571429,3.675e-05,0,0,82.46009091469158,43.21869633422007,35.28891136176708,18.734943358308104,27.01192736003759,157.1722217616333,111.62594379799084,45.54627796364244,2.847231474929164,1.412970332273232,mp-1047145,1047145