,formula_pretty,efermi,formation_energy_per_atom,total_magnetization_normalized_formula_units,num_magnetic_sites,num_unique_magnetic_sites,k_voigt,k_reuss,g_voigt,g_reuss,g_vrh,e_total,e_ionic,e_electronic,n,e_ij_max,material_id,b
2014,LiAl5O8,4.68049224,-3.353554159523809,0.0,0,0,196.22117291099443,196.2211729109944,127.85109824473855,114.02532073391593,120.93820948932725,8.904680056666667,5.744215606666667,3.1604644500000005,1.777769515432189,0.0,mp-530399,530399
2015,Li2FeF6,-2.24592486,-2.610322456851852,3.9996481,1,1,49.98262279371359,24.13623906305636,25.830224253122093,11.547894788567366,18.68905952084473,157.1722217616333,111.62594379799084,45.54627796364244,2.847231474929164,1.412970332273232,mp-777463,777463
2016,Fe2O3,3.1562566,-1.63579756125,9.9999999875,40,3,177.9409917299358,177.94099172993583,78.46413174555761,78.46271593072727,78.46342383814243,157.1722217616333,111.62594379799084,45.54627796364244,2.847231474929164,1.412970332273232,mp-565814,565814
2017,Ca2GaCu2,4.01216805,-0.2975049955000003,0.0001062,0,0,50.72254279357747,48.97491693294352,26.64906376007418,21.958340768370796,24.303702264222487,157.1722217616333,111.62594379799084,45.54627796364244,2.847231474929164,1.412970332273232,mp-30472,30472
2018,BaBiO3,3.755188,-2.2334278330000004,9.0625e-05,0,0,106.6330710280785,106.07273793115506,46.80020439307726,45.25496528192024,46.02758483749875,157.1722217616333,111.62594379799084,45.54627796364244,2.847231474929164,1.412970332273232,mp-559051,559051
2019,RbScO2,2.30373475,-2.9980326181249994,0.0005396,0,0,95.33360099170439,94.83383227729647,61.43957084331684,54.505377590228846,57.97247421677284,21.716065034182844,17.68563404084951,4.030430993333334,2.007593333654337,1.412970332273232,mp-8145,8145
2020,LiNi3O4,4.74402593,-1.3458402179166669,0.3056656,6,2,150.58441899912674,150.06371856833366,77.49500244888286,75.91874300799326,76.70687272843806,157.1722217616333,111.62594379799084,45.54627796364244,2.847231474929164,1.412970332273232,mp-755956,755956
2021,CrAgSe2,3.39825107,-0.5973268378385415,2.999591,1,1,65.61529985971481,62.21859352001247,23.67322982727215,21.973260280408436,22.823245053840292,20.870713270005407,4.611172433338742,16.259540836666662,4.032312095642729,0.2781618958414555,mp-3532,3532
2022,Te2W,5.92169717,-0.38720455999999953,2.555e-05,0,0,36.689450588940524,3.094118563097693,23.61433121187,3.0101639349124367,13.312247573391218,157.1722217616333,111.62594379799084,45.54627796364244,2.847231474929164,1.412970332273232,mp-22693,22693
2023,V(CO3)2,-0.05108472,-1.9286790944444445,0.99999905,1,1,32.08744339416627,8.728903396884364,21.639762877325953,-2.9244422601887967,9.357660308568578,157.1722217616333,111.62594379799084,45.54627796364244,2.847231474929164,1.412970332273232,mp-757524,757524
2024,Co3O4,4.04879594,-1.290614975,3.00003225,6,4,159.96511411759673,159.96511411759576,42.93919452932634,4.312783815519681,23.62598917242301,157.1722217616333,111.62594379799084,45.54627796364244,2.847231474929164,1.412970332273232,mp-18748,18748
2025,Mg41Al67,5.91165526,0.06865674675925906,0.4496273,0,0,55.179580175933204,55.17958017585675,23.510042841505264,21.813737541437867,22.661890191471564,157.1722217616333,111.62594379799084,45.54627796364244,2.847231474929164,1.412970332273232,mp-568106,568106
2026,Mg2C3,3.98673097,0.17125586600000062,0.00020955,0,0,92.47102348358202,89.44131666503968,51.094802975753254,41.608181961861526,46.35149246880739,157.1722217616333,111.62594379799084,45.54627796364244,2.847231474929164,1.412970332273232,mp-28793,28793
2027,TeBr2,0.01047657,-0.5415430166666665,0.00063475,0,0,5.131669781635263,3.085561561278089,2.5542518993328325,0.0024143408058309524,1.2783331200693318,35.40877477666667,30.102036073333338,5.306738703333333,2.303635974570056,1.412970332273232,mp-863764,863764
2028,AgAuO3,2.26813907,-0.35892026933333343,9.425e-06,0,0,125.87963855825825,125.87963855825826,56.14453768181144,55.59459502906712,55.86956635543928,157.1722217616333,111.62594379799084,45.54627796364244,2.847231474929164,1.412970332273232,mp-776165,776165
2029,Nb3Al,5.52989407,-0.17377538000000037,0.16323955,0,0,161.13895912529134,161.13895912529136,22.099813022390663,19.03018889307524,20.565000957732952,157.1722217616333,111.62594379799084,45.54627796364244,2.847231474929164,1.412970332273232,mp-796,796
2030,MoO2,3.639974,-1.6038335266666681,1.9999009,1,1,83.4704065893418,8.99672087581428,-18.790593424108124,9.318452511651314,-4.736070456228405,157.1722217616333,111.62594379799084,45.54627796364244,2.847231474929164,1.412970332273232,mp-25349,25349
2031,NaTiS2,5.0980387,-1.5975605915337647,0.9794582,1,1,52.15157056047552,51.770442356885425,38.5202976121967,34.63070617520582,36.57550189370126,157.1722217616333,111.62594379799084,45.54627796364244,2.847231474929164,1.412970332273232,mp-7942,7942
2032,PbCN2,3.33577973,-0.060794106874999976,0.0001853,0,0,30.298908964103802,20.863646609187818,12.729034771168857,-4.913817884437398,3.9076084433657297,157.1722217616333,111.62594379799084,45.54627796364244,2.847231474929164,1.412970332273232,mp-619032,619032
2033,Sr(AsPd)2,5.07791555,-0.7756554633333337,6.9e-05,0,0,80.87626421808895,80.74008619944459,35.34756081167847,31.687369651195066,33.517465231436766,157.1722217616333,111.62594379799084,45.54627796364244,2.847231474929164,1.412970332273232,mp-4370,4370
2034,Li2CoSiO4,1.82324765,-2.4876976570833333,4.5e-07,4,2,85.06964859742129,84.124198759926,37.588662827576535,36.58798499671922,37.08832391214788,157.1722217616333,111.62594379799084,45.54627796364244,2.847231474929164,1.412970332273232,mp-752946,752946
2035,GaCuSe2,3.21228489,-0.7138625155468747,2.75e-06,0,0,59.546047729556676,59.5458001842652,30.489593811981738,26.30953489441223,28.399564353196986,212.12293973361545,8.306135170510194,203.81680456310525,14.27644229362152,0.05332649572567131,mp-4840,4840
2036,Cu3Se2,4.55413923,-0.32197086593750013,0.008414,0,0,74.82923280639342,74.06543356187188,15.164977467146963,13.957266212019327,14.561121839583144,157.1722217616333,111.62594379799084,45.54627796364244,2.847231474929164,1.412970332273232,mp-20683,20683
2037,ZrInNi4,8.45073211,-0.3674446050000005,0.1918955,3,1,160.81851204307284,160.8185120430729,66.78877431474552,62.98094781316604,64.88486106395578,157.1722217616333,111.62594379799084,45.54627796364244,2.847231474929164,1.412970332273232,mp-637771,637771
2038,RbFeF4,-0.8972537,-2.817696075416668,5.00001665,2,1,36.02913387806367,35.965880149251014,21.048088054536205,4.427268927725087,12.737678491130646,157.1722217616333,111.62594379799084,45.54627796364244,2.847231474929164,1.412970332273232,mp-556927,556927
2039,YMg,3.04451837,-0.11064055333333389,0.0472096,0,0,41.07712602954674,41.07712602954673,26.13284687652993,13.456949932887744,19.794898404708835,157.1722217616333,111.62594379799084,45.54627796364244,2.847231474929164,1.412970332273232,mp-615,615
2040,Li(NiS)2,6.38211023,-0.7904308159166668,0.0421072,0,0,71.39347504210883,67.0903817943665,22.020357800159967,18.762670954013355,20.39151437708666,157.1722217616333,111.62594379799084,45.54627796364244,2.847231474929164,1.412970332273232,mp-755570,755570
2041,Ba(AlGe)2,4.92865584,-0.39234516799999997,8.5e-06,0,0,46.94810217068371,36.87924018078447,16.84565002819027,8.72601773624104,12.785833882215655,157.1722217616333,111.62594379799084,45.54627796364244,2.847231474929164,1.412970332273232,mp-31059,31059
2042,Hg,0.38660803,0.0010546499999999903,0.00253995,0,0,8.361057384293897,8.197602673358956,3.7511383455993585,3.7172974389382336,3.734217892268796,157.1722217616333,111.62594379799084,45.54627796364244,2.847231474929164,1.412970332273232,mp-975272,975272
2043,NbSbRu,7.15066285,-0.4812340816666669,0.0003795,0,0,168.10738726625794,168.10738726625794,66.30725897790012,66.3037021504381,66.3054805641691,38.0304117810675,15.19551203440106,22.834899746666437,4.778587630949802,1.413830096762829,mp-505297,505297
2044,Ca2ZnN2,3.04717726,-0.8494707179999998,0.0001451,0,0,81.6408391937547,78.17039920594577,48.594268325001586,41.81402637945643,45.20414735222901,15.987299183341996,9.647170230008662,6.340128953333335,2.517961269228209,1.412970332273232,mp-8818,8818
2045,TiOF,4.84429779,-3.463336470277779,0.007458,0,0,187.94697420767878,187.9463535341608,111.14979475560332,80.0654280408483,95.60761139822581,157.1722217616333,111.62594379799084,45.54627796364244,2.847231474929164,1.412970332273232,mp-753657,753657
2046,CaAlSi,5.28209704,-0.36258902400000037,0.022465060000000002,0,0,61.1768232057956,49.574732580542594,39.35622035902215,37.43053666483289,38.39337851192752,157.1722217616333,111.62594379799084,45.54627796364244,2.847231474929164,1.412970332273232,mp-567191,567191
2047,SnPb,7.39638678,0.054623382499999984,0.0060958,0,0,43.13367509750191,43.06626272562204,10.107778874767671,9.935160823571765,10.02146984916972,157.1722217616333,111.62594379799084,45.54627796364244,2.847231474929164,1.412970332273232,mp-972692,972692
2048,VOF,3.1018953,-2.7678027941666663,2.000003175,4,1,172.5934915206328,170.10188658756604,57.617803131447545,50.87221711945198,54.24501012544977,157.1722217616333,111.62594379799084,45.54627796364244,2.847231474929164,1.412970332273232,mp-760321,760321
2049,VCu3O4,4.39410601,-1.31639714625,2.3e-06,0,0,116.61874732199658,116.27643089458444,9.128913156155159,5.207713541476794,7.1683133488159765,19.61282223666667,8.157882253333335,11.454939983333333,3.3845147338035524,3.6117050000000006,mp-510657,510657
2050,NiGePd,7.45568832,-0.46258220500000036,0.00097495,0,0,158.32959566682757,156.34248985692142,53.321732662439125,44.56120993574041,48.94147129908977,157.1722217616333,111.62594379799084,45.54627796364244,2.847231474929164,1.412970332273232,mp-3274,3274
2051,SrAsPt,4.63533774,-1.0112781905555555,0.00183945,0,0,77.62584352156692,66.58879485460548,30.937092472902535,28.970509153842247,29.95380081337239,157.1722217616333,111.62594379799084,45.54627796364244,2.847231474929164,1.412970332273232,mp-8456,8456
2052,MnWO4,2.8322507,-2.216562538821839,0.0,2,1,128.78822718342235,125.95115059631381,56.55275527444822,52.71432653461143,54.63354090452982,157.1722217616333,111.62594379799084,45.54627796364244,2.847231474929164,1.412970332273232,mp-19407,19407
2053,Ca2MgSi2O7,1.82532997,-3.3771524283333325,5.12e-05,0,0,85.80192956863526,85.09414736736635,36.52663124009734,29.704441400746813,33.11553632042207,12.73159296,9.851093303333334,2.880499656666666,1.6972034812204062,0.33107,mp-6094,6094
2054,WN,9.76482919,-0.2510034475000005,0.0001134,0,0,376.2928381612436,373.79620386260507,163.1461827074733,138.84156363701325,150.99387317224327,157.1722217616333,111.62594379799084,45.54627796364244,2.847231474929164,1.412970332273232,mp-991,991
2055,ZnIn2O4,3.63401476,-1.9085892907142852,8e-06,0,0,136.18515489642058,136.18515489642056,60.00278537420886,57.730062109569744,58.86642374188931,157.1722217616333,111.62594379799084,45.54627796364244,2.847231474929164,1.412970332273232,mp-756297,756297
2056,Al2O3,6.19427044,-3.3787410854999997,0.0,0,0,228.00325435342256,227.37953183426143,146.2456220175153,141.86650512739695,144.05606357245614,157.1722217616333,111.62594379799084,45.54627796364244,2.847231474929164,1.412970332273232,mp-776490,776490
2057,SiC,8.03094123,-0.20432441624999953,5.6875e-06,0,0,213.64237725260688,213.6383916719777,189.43055900378187,185.25777059221184,187.34416479799685,10.491147903334564,3.3930207966678014,7.098127106666763,2.6642310535437357,0.08751610936404773,mp-567505,567505
2058,Ni2P2O7,3.09379267,-2.217830322424243,0.0,4,1,134.24385346079404,128.51788111425398,65.00779428486432,55.19975010818912,60.10377219652672,157.1722217616333,111.62594379799084,45.54627796364244,2.847231474929164,1.412970332273232,mp-18819,18819
2059,BaFe2S3,4.8705835,-1.2265313115625005,0.00322715,0,0,56.486958088058095,45.43833320099527,30.53588083749161,24.686362734409553,27.61112178595058,157.1722217616333,111.62594379799084,45.54627796364244,2.847231474929164,1.412970332273232,mp-22739,22739
2060,CsNiF3,-2.09124774,-2.5141008880862072,1.9998299,2,1,25.639614117712554,25.62305366880081,6.228726642059029,-15.71015621417051,-4.74071478605574,157.1722217616333,111.62594379799084,45.54627796364244,2.847231474929164,1.412970332273232,mp-611601,611601
2061,Rb2TiCl6,-0.66329505,-2.2121387564814814,1.2e-05,0,0,11.090574103079064,11.090574103079062,5.473353008789224,5.248875209807968,5.361114109298596,8.615160273335748,5.542046003335752,3.0731142699999956,1.7530300254131403,1.412970332273232,mp-27827,27827
2062,K(FeAs)2,3.64305439,-0.2867273506000004,1.3381583,2,1,49.757192606608385,46.958555299278714,24.400839513099452,22.478459846346407,23.43964967972293,157.1722217616333,111.62594379799084,45.54627796364244,2.847231474929164,1.412970332273232,mp-35276,35276
2063,ScTl2W,7.3362474,0.582062409583334,0.0039616,0,0,99.97809675453738,99.97809675456786,21.29049615067828,-220.0018955158592,-99.35569968259045,157.1722217616333,111.62594379799084,45.54627796364244,2.847231474929164,1.412970332273232,mp-631406,631406
2064,HfNbB4,8.04008519,-0.8628866927777766,0.0007932,0,0,270.69593374825104,268.2945593030379,223.26240056166196,215.16414387293077,219.21327221729638,157.1722217616333,111.62594379799084,45.54627796364244,2.847231474929164,1.412970332273232,mp-38818,38818
2065,Hf2N,5.93537057,-1.3637661166666675,0.00037095,0,0,195.13398917553644,194.64442423757626,73.31262267924022,208.86579242494784,141.08920755209402,157.1722217616333,111.62594379799084,45.54627796364244,2.847231474929164,1.412970332273232,mp-864647,864647
2066,CrAgS2,4.18093084,-0.7274474607291657,0.0,2,1,77.45263758435871,73.53126713036848,28.401540590230102,23.872690591093935,26.13711559066202,22.017900896891806,8.91274408022514,13.105156816666666,3.620104531179544,0.9126102424445062,mp-4182,4182
2067,Ag2SO4,1.51506221,-1.2597143966369049,0.0002214,0,0,58.60035784927056,36.98331534623859,11.70071890925045,9.65331011074574,10.677014509998095,34.75338981219033,31.24559289511777,3.507796917072556,1.8729113478946504,1.412970332273232,mp-5625,5625
2068,LiCeSn2,7.10779521,-0.5034686883333332,1.05077625,2,1,49.250274345126364,48.970838886388016,28.857476707194174,27.47891625538602,28.168196481290096,157.1722217616333,111.62594379799084,45.54627796364244,2.847231474929164,1.412970332273232,mp-20754,20754
2069,V(CO3)2,-0.21848782,-1.931655483333333,1.0001074,1,1,32.777271048393686,13.59670351230543,22.520623882362706,-1.1509242767973054,10.6848498027827,157.1722217616333,111.62594379799084,45.54627796364244,2.847231474929164,1.412970332273232,mp-752541,752541
2070,Tl4Te3Pb,5.21144788,-0.488502181041667,0.00081165,0,0,25.649577296427772,25.315484032876565,13.400719047061669,13.212660029397533,13.306689538229602,157.1722217616333,111.62594379799084,45.54627796364244,2.847231474929164,1.412970332273232,mp-20740,20740
2071,PbI2,1.02768837,-0.920886081666667,0.0002082,0,0,5.731133308780231,2.883711532460846,3.533834792104337,0.9062574925142652,2.220046142309301,15.909180703314682,10.989683079981347,4.919497623333333,2.2179940539445395,0.005325000852365339,mp-567503,567503
2072,PdSO4,0.90540761,-1.407220419687499,0.00240745,0,0,29.008949028581235,23.474355242876268,20.017138171553107,3.2857075442946697,11.651422857923889,157.1722217616333,111.62594379799084,45.54627796364244,2.847231474929164,1.412970332273232,mp-28952,28952
2073,TiCdO3,3.39436787,-2.6393168891666674,4.225e-06,0,0,150.34955285332387,145.3759977425173,68.28804852777967,63.97709870800698,66.13257361789331,157.1722217616333,111.62594379799084,45.54627796364244,2.847231474929164,1.412970332273232,mp-20940,20940
2074,CeBe13,5.01386669,-0.15135283964285762,0.1457895,2,1,110.73854109494502,110.73854109492983,118.25873711705205,117.93590639254975,118.0973217548009,157.1722217616333,111.62594379799084,45.54627796364244,2.847231474929164,1.412970332273232,mp-457,457
2075,Y(Sn3Ru2)2,7.49430523,-0.3240539115151506,0.0003414,0,0,120.173306524301,120.14268231687487,56.07543386739438,55.62926570462081,55.85234978600759,157.1722217616333,111.62594379799084,45.54627796364244,2.847231474929164,1.412970332273232,mp-639910,639910
2076,Y3PbC,5.026395,-0.5704130280000002,0.0009595,0,0,76.07371281955453,76.07371281955453,58.65387639678866,57.95746920040482,58.305672798596746,157.1722217616333,111.62594379799084,45.54627796364244,2.847231474929164,1.412970332273232,mp-21017,21017
2077,CsFeCl3,2.43412191,-1.3902933145862064,0.03990965,0,0,14.233762808429418,13.790638821131706,5.2871137920734705,3.2560987479800714,4.271606270026771,157.1722217616333,111.62594379799084,45.54627796364244,2.847231474929164,1.412970332273232,mp-29400,29400
2078,TmFeO3,2.09484294,-2.8901691350000003,4.999684483333334,18,7,164.47696381555107,162.36688155378792,75.7789101642866,73.02521600692589,74.40206308560624,157.1722217616333,111.62594379799084,45.54627796364244,2.847231474929164,1.412970332273232,mp-558400,558400
2079,TiAlNi2,8.02161151,-0.6230570533333335,0.00013,0,0,161.8524685296708,161.85246852967074,67.69257498298818,50.35316250139073,59.02286874218945,157.1722217616333,111.62594379799084,45.54627796364244,2.847231474929164,1.412970332273232,mp-7187,7187
2080,Ca(CuP)2,7.47190187,-0.556680631333333,0.0002866,0,0,86.54817825057808,85.47547352962572,39.2671971434157,32.946073617383554,36.106635380399624,157.1722217616333,111.62594379799084,45.54627796364244,2.847231474929164,1.412970332273232,mp-7422,7422
2081,Ca(CoP)2,7.14613761,-0.8537474993333326,1.0779309,2,1,105.16797612820666,97.25596721906166,82.50343900163703,76.96171616870132,79.73257758516917,157.1722217616333,111.62594379799084,45.54627796364244,2.847231474929164,1.412970332273232,mp-3210,3210
2082,NbSi2,8.7826126,-0.5019084644444453,0.0008173666666666667,0,0,175.71793200321534,173.55192808764926,140.9240850761977,139.8026381310096,140.36336160360366,157.1722217616333,111.62594379799084,45.54627796364244,2.847231474929164,1.412970332273232,mp-2478,2478
2083,NaFeO3,0.66476366,-1.3869249323103445,2.5e-07,2,1,66.92760449590381,63.88895672414196,37.525191233908,31.879264200747627,34.702227717327816,157.1722217616333,111.62594379799084,45.54627796364244,2.847231474929164,1.412970332273232,mp-754915,754915
2084,ZrGeS,7.02603428,-1.3039362143750008,0.0029092,0,0,119.41129845650757,119.30632286155678,78.4504634796906,76.38167083063995,77.41606715516528,157.1722217616333,111.62594379799084,45.54627796364244,2.847231474929164,1.412970332273232,mp-4997,4997
2085,Y2O3,2.3347823,-3.9183680243333336,1.005e-05,0,0,129.50785476149375,126.72635907435692,66.76020594269117,58.869941813626326,62.81507387815875,157.1722217616333,111.62594379799084,45.54627796364244,2.847231474929164,1.412970332273232,mp-775907,775907
2086,Sc3TlC,5.4982611,-0.6220075236666673,2.68e-05,0,0,97.0463172533517,97.04631725335172,81.77848992046377,81.65178346943455,81.71513669494917,157.1722217616333,111.62594379799084,45.54627796364244,2.847231474929164,1.412970332273232,mp-4230,4230
2087,BaAu2,3.23229708,-0.7404464866666665,0.0016225,0,0,48.200598468013524,41.11943403817383,17.310959539870755,16.24705077460225,16.779005157236504,157.1722217616333,111.62594379799084,45.54627796364244,2.847231474929164,1.412970332273232,mp-30363,30363
2088,Na2Mn3O7,2.70362003,-1.9403542809913799,9.00074785,6,3,83.13435293618438,71.23786734336446,47.24959506163039,13.965127142787875,30.607361102209133,157.1722217616333,111.62594379799084,45.54627796364244,2.847231474929164,1.412970332273232,mp-19080,19080
2089,Cr3Pt,7.32550899,-0.008360342499999618,0.6271698,6,1,247.28229974776937,247.28229974776934,78.08365228349962,63.65580886638786,70.86973057494373,157.1722217616333,111.62594379799084,45.54627796364244,2.847231474929164,1.412970332273232,mp-446,446
2090,Li2Pd,1.99298809,-0.3842782388888886,0.0019452,0,0,49.58875521342551,46.332319560403825,24.33325235220635,18.496453636762244,21.4148529944843,157.1722217616333,111.62594379799084,45.54627796364244,2.847231474929164,1.412970332273232,mp-728,728