,formula_pretty,efermi,formation_energy_per_atom,total_magnetization_normalized_formula_units,num_magnetic_sites,num_unique_magnetic_sites,k_voigt,k_reuss,g_voigt,g_reuss,g_vrh,e_total,e_ionic,e_electronic,n,e_ij_max,material_id,b
3481,BaCuAs,4.15929929,-0.7491517933333327,1.63e-05,0,0,52.799200381259055,52.54672586774093,33.750318483464234,33.213264846824515,33.48179166514437,157.1722217616333,111.62594379799084,45.54627796364244,2.847231474929164,1.412970332273232,mp-9898,9898
3482,Ga2O3,3.80570687,-1.984921558,0.00026275,0,0,173.129202872137,152.9430500133226,-29.483331768155526,74.30617144443796,22.41141983814122,157.1722217616333,111.62594379799084,45.54627796364244,2.847231474929164,1.412970332273232,mp-13134,13134
3483,MgPd5,4.41172721,-0.3330533766666666,0.0002258,0,0,139.06354299066993,139.013425855639,41.3908694959999,35.97125978675356,38.681064641376736,157.1722217616333,111.62594379799084,45.54627796364244,2.847231474929164,1.412970332273232,mp-976976,976976
3484,LiP,4.12805224,-0.5232530195833336,9.2275e-05,0,0,40.815228396037575,40.28412984278128,26.87426990913733,26.224652686424403,26.549461297780866,17.709233870000002,6.896915893333333,10.812317976666668,3.288208931419454,1.412970332273232,mp-9588,9588
3485,Sr(AlTe2)2,3.56022874,-1.075739436666666,1.83e-05,0,0,23.750155547772316,22.431208332008534,14.953819569026908,13.016554255212428,13.98518691211967,12.948366285841113,5.60875915858841,7.339607127252703,2.709170929870004,0.0645302997178584,mp-37091,37091
3486,ZrAlW,4.42043795,0.7195477599999988,0.0278634,0,0,100.22974499621438,100.22974499621427,-12.066747370296126,67.7669371917714,27.85009491073764,157.1722217616333,111.62594379799084,45.54627796364244,2.847231474929164,1.412970332273232,mp-631503,631503
3487,LiVF4,-0.04192578,-3.2048183430555555,1.9994838,2,1,55.91257781806379,50.51088846123576,31.4635503670285,28.350620576130336,29.907085471579418,157.1722217616333,111.62594379799084,45.54627796364244,2.847231474929164,1.412970332273232,mp-754337,754337
3488,Ge,4.94824492,0.149389906666667,0.00036968333333333337,0,0,54.448191222791166,51.467361711387746,43.68237091796539,41.10218446355637,42.39227769076088,40.19195051666667,0.8220629966666667,39.369887520000006,6.274542813623954,0.24642,mp-137,137
3489,B4C,5.12685968,-0.02938511199999899,0.00019633333333333333,0,0,226.59061296269672,226.54616782337118,181.22029487814825,174.80919353175534,178.0147442049518,157.1722217616333,111.62594379799084,45.54627796364244,2.847231474929164,1.412970332273232,mp-696746,696746
3490,W3O7F,3.84079103,-2.1601268043181805,3.0000284,3,2,229.85443284826846,225.77863423495032,121.43978008311002,77.12519322490076,99.2824866540054,157.1722217616333,111.62594379799084,45.54627796364244,2.847231474929164,1.412970332273232,mp-759488,759488
3491,FeNi,6.83864477,-0.06722973499999974,3.1939201,2,2,186.73543180065488,186.52624645329487,102.88967033481025,80.99370018959151,91.94168526220088,157.1722217616333,111.62594379799084,45.54627796364244,2.847231474929164,1.412970332273232,mp-2213,2213
3492,Co,5.23998011,0.0,1.60663785,2,1,212.0755942071928,212.0755711711167,106.22423048458018,103.10688211674335,104.66555630066176,157.1722217616333,111.62594379799084,45.54627796364244,2.847231474929164,1.412970332273232,mp-54,54
3493,LiZnO2,1.19521911,-1.6295338933333334,1.0020869,2,1,106.0273750749851,102.38789118060163,49.93415713447124,46.11529627479742,48.02472670463433,157.1722217616333,111.62594379799084,45.54627796364244,2.847231474929164,1.412970332273232,mp-754344,754344
3494,Al8Mo3,8.35890827,-0.3357490745454548,1.09e-05,0,0,141.6991940682393,141.10150848390643,106.82389187839415,101.4542350932114,104.13906348580278,157.1722217616333,111.62594379799084,45.54627796364244,2.847231474929164,1.412970332273232,mp-2733,2733
3495,Ti2MnBe,5.69139234,-0.20339073239942618,0.0051296,0,0,153.2645362298505,153.26453622985048,54.21547151660179,52.66960395070038,53.44253773365108,157.1722217616333,111.62594379799084,45.54627796364244,2.847231474929164,1.412970332273232,mp-861958,861958
3496,Al3Fe,8.44147151,-0.15406494749999933,0.2963979,2,1,125.43630281444901,125.42980484649492,54.9110274527645,51.297501475646584,53.10426446420554,157.1722217616333,111.62594379799084,45.54627796364244,2.847231474929164,1.412970332273232,mp-984873,984873
3497,VCoSb,8.02623499,-0.2500421216666666,1.0023259,2,2,140.94003130474078,140.94003130474076,56.81491474878424,54.562958600851275,55.688936674817754,157.1722217616333,111.62594379799084,45.54627796364244,2.847231474929164,1.412970332273232,mp-4076,4076
3498,TiAlRh2,8.01301471,-0.9830098508333327,0.0022602,0,0,193.19441109176555,193.19441109176552,48.831783407002526,-52.96878215030239,-2.0684993716499314,157.1722217616333,111.62594379799084,45.54627796364244,2.847231474929164,1.412970332273232,mp-866153,866153
3499,AlMo3,8.18386744,-0.24410424625000005,0.00536055,0,0,224.9244741025781,224.92447410257816,124.06795677508386,118.62310361515266,121.34553019511826,157.1722217616333,111.62594379799084,45.54627796364244,2.847231474929164,1.412970332273232,mp-259,259
3500,Li(TiSe2)3,2.64228631,-1.4411682037395834,0.4849902,2,2,32.36750427630243,11.417146503387345,21.536752594459244,6.686288006374015,14.111520300416629,157.1722217616333,111.62594379799084,45.54627796364244,2.847231474929164,1.412970332273232,mp-8132,8132
3501,NaPt2,4.22269287,-0.36573053885057466,0.0012537,0,0,123.53076904762972,123.5307690476297,69.85012885979712,66.4049407475243,68.12753480366071,157.1722217616333,111.62594379799084,45.54627796364244,2.847231474929164,1.412970332273232,mp-2271,2271
3502,Nb4N3,7.43176564,-1.0706450121428557,0.0028543,0,0,280.4380940198608,280.419362483701,152.67845375806152,127.28875191995093,139.9836028390062,157.1722217616333,111.62594379799084,45.54627796364244,2.847231474929164,1.412970332273232,mp-569167,569167
3503,Al21Pd8,7.69732118,-0.5593938048275857,0.0010684,0,0,108.70243900974751,108.5045951916566,50.19042832094462,49.9276742613036,50.059051291124106,157.1722217616333,111.62594379799084,45.54627796364244,2.847231474929164,1.412970332273232,mp-1498,1498
3504,TiNbO4,4.39602491,-3.1573800788888895,0.6698014,2,2,174.87294734481327,149.79660009447954,31.723247727984017,29.826205732535794,30.774726730259907,157.1722217616333,111.62594379799084,45.54627796364244,2.847231474929164,1.412970332273232,mp-755302,755302
3505,Hf2Al3,6.25264831,-0.4258436969999998,0.00035345,0,0,113.94913439445824,113.945531831961,69.3317331875846,64.59075427929442,66.96124373343952,157.1722217616333,111.62594379799084,45.54627796364244,2.847231474929164,1.412970332273232,mp-846,846
3506,Fe2P,8.24292508,-0.4578205022222224,3.0193921333333336,6,2,215.65169854831538,215.59929010220068,90.78676966933077,86.86336005143794,88.82506486038434,157.1722217616333,111.62594379799084,45.54627796364244,2.847231474929164,1.412970332273232,mp-778,778
3507,Ca(CoGe)2,5.5089347,-0.4737103519999998,0.0043208,0,0,98.0287078020216,96.49813429779174,60.47393292814745,59.069990071311665,59.77196149972956,157.1722217616333,111.62594379799084,45.54627796364244,2.847231474929164,1.412970332273232,mp-4259,4259
3508,Tl3SbSe3,3.40611557,-0.564887661004464,0.00100915,0,0,14.063482502044018,14.063482502044018,6.532948080642894,5.89123660232212,6.212092341482507,26.155447983333335,15.562472363333336,10.592975620000002,3.254685179859951,0.004820000000000002,mp-4876,4876
3509,TiAsRh,7.58630633,-0.8762976852777781,2.3625e-05,0,0,179.4240558687278,177.4883807314745,76.73961138251407,74.8759926577094,75.80780202011174,157.1722217616333,111.62594379799084,45.54627796364244,2.847231474929164,1.412970332273232,mp-505540,505540
3510,Al2Fe3Si4,9.44741685,-0.3983978000000003,0.00028145,0,0,173.1370098896577,171.62835515124678,109.75729404571327,107.4839036367508,108.62059884123204,157.1722217616333,111.62594379799084,45.54627796364244,2.847231474929164,1.412970332273232,mp-29111,29111
3511,Ba(CuS)2,5.45992284,-1.1115908392500002,0.0002153,0,0,65.96266210261747,65.9402594822742,30.272534479857935,27.069786395652173,28.671160437755056,29.330637609975202,18.72451359330854,10.606124016666667,3.2567044718037694,1.412970332273232,mp-4255,4255
3512,SiO2,-0.94004812,-3.254802676666667,6.17e-05,0,0,147.03500813210997,147.03500813210997,60.6059222582857,47.774667459777866,54.19029485903178,157.1722217616333,111.62594379799084,45.54627796364244,2.847231474929164,1.412970332273232,mp-8352,8352
3513,V,6.26285546,0.0,0.0135813,0,0,179.46090689053514,179.4609068905351,38.27382461279886,22.726140136177015,30.49998237448794,157.1722217616333,111.62594379799084,45.54627796364244,2.847231474929164,1.412970332273232,mp-146,146
3514,CsTiBr3,3.02487506,-1.7135035427528742,1.4408202,2,1,15.672628377431149,14.817331126276358,7.302835689685691,7.0556354827590075,7.179235586222349,157.1722217616333,111.62594379799084,45.54627796364244,2.847231474929164,1.412970332273232,mp-22962,22962
3515,LiHfRh2,5.0478309,-0.7297507983333329,0.0001039,0,0,151.73362649517068,151.73362649517063,57.44501499336639,57.437303245746094,57.44115911955625,157.1722217616333,111.62594379799084,45.54627796364244,2.847231474929164,1.412970332273232,mp-867148,867148
3516,Nd2WO6,1.70712221,-3.2377471572222225,7.1175e-05,0,0,124.89979446833142,124.40782448842032,53.65340959051466,53.29657013010731,53.474989860310984,157.1722217616333,111.62594379799084,45.54627796364244,2.847231474929164,1.412970332273232,mp-18057,18057
3517,MoO3,2.03243527,-1.1565558156249995,4.52e-05,4,2,90.75984398503614,72.43295515772735,61.34848295340109,42.42149685443182,51.884989903916455,157.1722217616333,111.62594379799084,45.54627796364244,2.847231474929164,1.412970332273232,mp-685156,685156
3518,HfSn,7.00380352,-0.27205373500000096,0.0004329,0,0,102.11565156791559,102.11565156791562,24.618799766917565,7.913062126040589,16.265930946479077,157.1722217616333,111.62594379799084,45.54627796364244,2.847231474929164,1.412970332273232,mp-21328,21328
3519,NbCoSb,8.01456595,-0.27335437166666665,0.2321717,0,0,155.93952367149905,155.93952367149902,59.408991606007824,56.34940142617726,57.87919651609254,157.1722217616333,111.62594379799084,45.54627796364244,2.847231474929164,1.412970332273232,mp-31460,31460
3520,NbPS,7.55804225,-0.9654205071527772,3.05e-06,0,0,139.679726338148,131.9658328094924,77.05618327220976,69.71976813980508,73.38797570600742,157.1722217616333,111.62594379799084,45.54627796364244,2.847231474929164,1.412970332273232,mp-27471,27471
3521,LiGaCu2,5.33112233,-0.199819090208333,0.0005505,0,0,83.98253774807547,83.9825377480754,48.24874697490339,17.5419712287923,32.895359101847845,157.1722217616333,111.62594379799084,45.54627796364244,2.847231474929164,1.412970332273232,mp-861901,861901
3522,Ni2SbTe,9.39160617,-0.3810660349999999,0.0006589,0,0,104.34119485869174,103.98143405942939,42.19755346505311,41.80354668035932,42.00055007270622,157.1722217616333,111.62594379799084,45.54627796364244,2.847231474929164,1.412970332273232,mp-38006,38006
3523,LiSn,5.50113306,-0.32586698916666695,0.0009417666666666668,0,0,35.5794773741343,34.812145405273085,18.91269815093498,18.646316924719294,18.779507537827136,157.1722217616333,111.62594379799084,45.54627796364244,2.847231474929164,1.412970332273232,mp-569073,569073
3524,BaTiO3,3.78440511,-1.6848189356666665,0.0770356,0,0,96.97636149319182,94.13873858883301,30.3291251861935,-4.78901788395892,12.77005365111729,157.1722217616333,111.62594379799084,45.54627796364244,2.847231474929164,1.412970332273232,mp-19990,19990
3525,CuS,5.49246722,-0.4446092773958335,1.6583333333333334e-05,0,0,80.6470704595095,79.673926675825,29.35979724870048,20.249551731319716,24.8046744900101,157.1722217616333,111.62594379799084,45.54627796364244,2.847231474929164,1.412970332273232,mp-504,504
3526,CuBiO2,4.12991105,-1.2602380275000007,8.86e-05,0,0,48.97747922465173,43.116058272195566,22.733980609138953,16.394752756243005,19.56436668269098,157.1722217616333,111.62594379799084,45.54627796364244,2.847231474929164,1.412970332273232,mp-997054,997054
3527,SrHfO3,2.39369237,-3.780055470333333,2.3e-06,0,0,152.96894738577137,151.60195653379864,91.41152770311098,86.25803647362048,88.83478208836573,246.35700598000003,242.00659199666666,4.3504139833333335,2.085764604008164,8.735864163338391,mp-13108,13108
3528,Ga2S3,2.33866981,-0.9642657478750003,0.00073285,0,0,32.09329553985434,29.27541040133316,23.556766251927364,22.185601616287773,22.87118393410757,10.230235533333333,4.359090176666666,5.871145356666666,2.42304464603248,0.36188320767900023,mp-539,539
3529,SrO,1.66284593,-3.077090665833333,0.0,0,0,87.42517203457136,87.42517203457136,56.0402772850825,55.96364324120773,56.001960263145115,18.04611267653627,14.148419776536281,3.8976928999999907,1.9742575566526244,1.412970332273232,mp-2472,2472
3530,Al3Cr,8.24807541,-0.1403820824999995,1.0076414,1,1,107.10602473173613,107.06564373391325,89.25054970583031,76.29338522892742,82.77196746737886,157.1722217616333,111.62594379799084,45.54627796364244,2.847231474929164,1.412970332273232,mp-867780,867780
3531,NiSnF6,1.50613001,-2.6395651875000006,1.9982055,1,1,33.262813306791614,28.691852977219966,32.74061405631894,22.54829500455064,27.64445453043479,5.219139510015552,2.879703973348884,2.339435536666667,1.5295213423377483,1.412970332273232,mp-560023,560023
3532,Si2W,10.16406565,-0.34600080666666716,4.18e-05,0,0,219.18193218969296,217.7779025809086,189.77354017593217,187.72846476180564,188.7510024688689,157.1722217616333,111.62594379799084,45.54627796364244,2.847231474929164,1.412970332273232,mp-1620,1620
3533,Ba(NiP2)2,6.62452968,-0.6549892261904761,0.0085513,0,0,97.69088842241675,97.4338018523058,39.61721263185788,-46.822168740467845,-3.6024780543049815,157.1722217616333,111.62594379799084,45.54627796364244,2.847231474929164,1.412970332273232,mp-28927,28927
3534,Rb2PtS2,2.74603744,-1.10081790825,0.0,0,0,34.42080976499236,30.064419352511894,19.057565026844,14.52681799061013,16.792191508727065,9.639232136688296,4.351559126688315,5.287673009999981,2.299494076965623,1.412970332273232,mp-7929,7929
3535,FeCuS2,4.28583567,-0.5125215740625011,3.4507982,2,2,52.86405110903482,51.60213600248088,19.25976906641696,17.02266934924816,18.141219207832563,157.1722217616333,111.62594379799084,45.54627796364244,2.847231474929164,1.412970332273232,mp-640073,640073
3536,AgP2,5.27508609,-0.0061465336111107645,0.0016443,0,0,63.43868879350904,61.414931257685886,30.49189738487286,20.65108667135047,25.571492028111663,15.263409166666667,1.0199288266666668,14.24348034,3.7740535687772105,1.412970332273232,mp-8200,8200
3537,PrBr3,0.74499327,-2.309869445625,5.7e-06,0,0,28.93767159719544,23.49354727460798,15.136612077018487,11.647108000435972,13.39186003872723,157.1722217616333,111.62594379799084,45.54627796364244,2.847231474929164,1.412970332273232,mp-23221,23221
3538,CaPtF6,-1.44655694,-2.6802502806249997,1.55e-05,0,0,17.15446959883402,12.294185790848346,18.872406609721953,8.710589197455878,13.791497903588915,4.95512201999279,2.49467226999279,2.4604497500000004,1.5685820826466177,1.412970332273232,mp-8255,8255
3539,EuF3,0.00824476,-3.803622284375,6.000000175,4,1,92.11360556813557,79.42933263093131,39.63212679435211,32.647550669292094,36.1398387318221,157.1722217616333,111.62594379799084,45.54627796364244,2.847231474929164,1.412970332273232,mp-19908,19908
3540,Li4Fe3O8,1.63939164,-1.7000616242222217,12.0018305,5,3,95.62326393326352,87.29243012698528,63.90900429734838,48.24359957138789,56.07630193436813,157.1722217616333,111.62594379799084,45.54627796364244,2.847231474929164,1.412970332273232,mp-771986,771986
3541,Zr2O,5.58345645,-1.9908461322222228,0.00227095,0,0,153.47924313449906,153.26275681697442,79.10094922958719,76.0076268224485,77.55428802601784,157.1722217616333,111.62594379799084,45.54627796364244,2.847231474929164,1.412970332273232,mp-753629,753629
3542,Mg5Rh2,4.21895844,-0.38255036857142904,0.00038395,0,0,70.95193444606376,70.76581026876298,32.504765944130575,31.818792311627284,32.16177912787893,157.1722217616333,111.62594379799084,45.54627796364244,2.847231474929164,1.412970332273232,mp-30778,30778
3543,Ni3Ge,8.66288834,-0.28981357624999937,0.0257106,0,0,174.70867351266185,174.70867351266187,87.78566882443432,80.6488927176957,84.21728077106502,157.1722217616333,111.62594379799084,45.54627796364244,2.847231474929164,1.412970332273232,mp-21008,21008
3544,ScGaRu2,6.11272178,-0.44062623312499927,0.0041067,0,0,171.6955985382356,171.69559853819132,67.89789767867696,66.01281672815168,66.95535720341431,157.1722217616333,111.62594379799084,45.54627796364244,2.847231474929164,1.412970332273232,mp-867156,867156
3545,ZnSb,4.7378534,-0.12399639812500007,4.625e-07,0,0,47.854255148692694,47.721062325831056,28.946760899132347,27.349202735508438,28.147981817320392,157.1722217616333,111.62594379799084,45.54627796364244,2.847231474929164,1.412970332273232,mp-753,753
3546,ZnNi,5.36238975,-0.2457631,0.0065821,0,0,146.45199615634954,146.45199615634922,59.091173702262715,-33.79943065238314,12.645871524939789,157.1722217616333,111.62594379799084,45.54627796364244,2.847231474929164,1.412970332273232,mp-1486,1486
3547,Rb2Pt3S4,2.7420555,-0.9384345163888889,0.0080942,0,0,27.82794873943562,14.78323442825311,8.91318975749836,6.046378855401914,7.479784306450137,11.21676567673691,5.163937296736909,6.052828380000001,2.4602496580631814,1.412970332273232,mp-4030,4030
3548,YCuO2,2.41703142,-2.723188007916666,0.00010365,0,0,117.44572026457205,111.11530937613855,42.72441605941852,26.86621640788815,34.79531623365334,11.731788539934248,6.855432733267583,4.876355806666667,2.2082472249878786,1.412970332273232,mp-2918,2918
3549,LaS,8.96063962,-2.4146084840625006,0.0009325,0,0,79.61989530444234,79.61989530444232,46.782954421056516,31.77197761691653,39.27746601898652,157.1722217616333,111.62594379799084,45.54627796364244,2.847231474929164,1.412970332273232,mp-2350,2350
3550,YCdHg2,3.54555943,-0.37519722916666676,0.0017284,0,0,61.38147091237064,61.38147091237062,22.030475097542265,15.22064516612193,18.625560131832096,157.1722217616333,111.62594379799084,45.54627796364244,2.847231474929164,1.412970332273232,mp-865525,865525
3551,NiO2,1.68768901,-0.6806763166666668,1.27e-05,0,0,82.74254691993231,10.842999251406695,60.843614052017195,3.725616554404179,32.284615303210686,157.1722217616333,111.62594379799084,45.54627796364244,2.847231474929164,1.412970332273232,mp-510753,510753
3552,Ti3TeO8,-0.21607214,-2.926664191666667,0.0015315,0,0,7.220517351123249,5.343669565922411,14.817804203876541,12.051498502038402,13.434651352957472,11.33355776,7.435459403333335,3.898098356666667,1.9743602398414193,0.590581140221522,mp-774922,774922
3553,Nb3In,6.32743144,0.03227491124999915,0.00522355,0,0,152.64462301444902,152.644623014449,26.2361582622013,8.5181086145949,17.3771334383981,157.1722217616333,111.62594379799084,45.54627796364244,2.847231474929164,1.412970332273232,mp-22060,22060
3554,Ge2W,8.58612337,0.06566053000000001,0.001039,0,0,171.8118673506188,171.7811533244354,138.02173203291494,135.00251715263465,136.5121245927748,157.1722217616333,111.62594379799084,45.54627796364244,2.847231474929164,1.412970332273232,mp-542595,542595
3555,ScCdPd2,4.51938425,-0.7236497387499998,0.0009967,0,0,106.34993948858731,106.34993948858713,30.586722109913715,-9.964988075302287,10.310867017305714,157.1722217616333,111.62594379799084,45.54627796364244,2.847231474929164,1.412970332273232,mp-867911,867911
3556,Sn2Rh,9.28123242,-0.3994085766666669,0.00034455,0,0,108.19375613692759,108.09228292576104,47.43263585872951,44.39332224198613,45.91297905035782,157.1722217616333,111.62594379799084,45.54627796364244,2.847231474929164,1.412970332273232,mp-565,565
3557,YInPt,6.36794723,-0.9941906133333336,3.686666666666667e-05,0,0,101.56028791911584,100.05669832246463,36.03931333943179,31.513120058427596,33.776216698929694,157.1722217616333,111.62594379799084,45.54627796364244,2.847231474929164,1.412970332273232,mp-19740,19740