,formula_pretty,efermi,formation_energy_per_atom,total_magnetization_normalized_formula_units,num_magnetic_sites,num_unique_magnetic_sites,k_voigt,k_reuss,g_voigt,g_reuss,g_vrh,e_total,e_ionic,e_electronic,n,e_ij_max,material_id,b
78,Tl2Au4S3,3.00416756,-0.411098320115741,0.00016985,0,0,18.766618060534558,17.28252346873785,7.846063226968151,6.988422699984332,7.417242963476241,20.84146929,11.402564993333334,9.438904296666665,3.072279983443349,1.412970332273232,mp-29898,29898
79,MgF2,-3.78845073,-3.721774798333333,9.445e-05,0,0,52.55903599942912,48.382842810139934,16.02422068396978,8.676764248549196,12.350492466259489,157.1722217616333,111.62594379799084,45.54627796364244,2.847231474929164,1.412970332273232,mp-560236,560236
80,CaGePt,5.41711467,-0.9070047433333333,1.415e-05,0,0,91.25352074784321,88.46752431872092,36.87085627373097,34.63102232677007,35.75093930025052,157.1722217616333,111.62594379799084,45.54627796364244,2.847231474929164,1.412970332273232,mp-31153,31153
81,Na4PtO4,2.24972621,-1.4226410262452107,0.0002553,0,0,56.80819675376841,53.04489939774679,34.43154655119009,26.551020271605545,30.491283411397816,9.026249627795588,3.9734767547428294,5.052772873052759,2.247837376914255,1.412970332273232,mp-760492,760492
82,AlFeO3,4.11816289,-2.5228678975000007,5.00045185,16,8,178.3385683600451,178.01309495276303,81.53072508898298,80.25286395554235,80.89179452226267,157.1722217616333,111.62594379799084,45.54627796364244,2.847231474929164,1.412970332273232,mp-21216,21216
83,LaScO3,4.95757224,-3.9505633779999996,0.0003335,0,0,154.49660823298734,153.66345305234168,78.97802986830477,78.3186229009842,78.64832638464449,34.39522403333333,29.385834009999996,5.009390023333334,2.238166665673791,1.412970332273232,mp-31116,31116
84,TiO,8.96810621,-2.8103615241666677,0.0008422,0,0,237.51518920391015,235.97868463936686,171.70177980999742,170.36640507965964,171.03409244482853,157.1722217616333,111.62594379799084,45.54627796364244,2.847231474929164,1.412970332273232,mp-755264,755264
85,VGaNi2,6.91626891,-0.28503470187500035,0.0024879,0,0,185.69131437304551,185.6913143730451,63.798201307813564,-3.436252040224165,30.180974633794698,157.1722217616333,111.62594379799084,45.54627796364244,2.847231474929164,1.412970332273232,mp-30658,30658
86,LaSi,8.29230412,-0.7153189050000002,0.00052485,0,0,67.57819751560857,65.38210430022389,45.63432821405891,42.70749088763226,44.170909550845586,157.1722217616333,111.62594379799084,45.54627796364244,2.847231474929164,1.412970332273232,mp-7083,7083
87,Li3GaN2,2.27836453,-0.651991903125,9.9375e-05,0,0,98.95017954916243,98.95017954916241,89.17867644349508,86.86501061600609,88.02184352975058,11.771391736666665,6.539286196666667,5.232105539999997,2.287379623062162,1.412970332273232,mp-3887,3887
88,Ge,6.06015501,0.33402950500000017,0.0087759,0,0,65.49728144464474,65.49728144464471,10.752546198700092,-22.619317800374535,-5.933385800837222,157.1722217616333,111.62594379799084,45.54627796364244,2.847231474929164,1.412970332273232,mp-12093,12093
89,Ti2PbC,8.1694894,-0.5685984179166672,0.0027073,0,0,119.07788007332357,117.42815865194189,73.10101139339251,71.72130452268244,72.41115795803748,157.1722217616333,111.62594379799084,45.54627796364244,2.847231474929164,1.412970332273232,mp-20661,20661
90,SmScO3,2.45467793,-3.9212644595,0.000241525,0,0,163.04323494990936,160.49864391201697,81.76519438173099,80.59312834088882,81.17916136130991,157.1722217616333,111.62594379799084,45.54627796364244,2.847231474929164,1.412970332273232,mp-31118,31118
91,Cd(InSe2)2,2.00179498,-0.8417695070535716,8.3e-05,0,0,23.470636200551088,23.31001402713139,14.896843657329255,11.992259335131923,13.444551496230588,11.356648670002462,3.7459900033357934,7.6106586666666685,2.758742225483684,0.17083945484039403,mp-22304,22304
92,TiSe,6.98158356,-1.3496532265885417,0.001153575,0,0,105.51979704798903,104.03699740502003,65.34052045078701,56.50977838870013,60.92514941974357,157.1722217616333,111.62594379799084,45.54627796364244,2.847231474929164,1.412970332273232,mp-571651,571651
93,AsPdS,5.03921085,-0.524221408541667,2.5125e-05,0,0,103.08325741810661,103.08325741809078,37.04343967351663,35.889258110495184,36.46634889200591,157.1722217616333,111.62594379799084,45.54627796364244,2.847231474929164,1.412970332273232,mp-10848,10848
94,B13C2,4.74924726,-0.07181778727777725,7.78e-05,0,0,223.46209419523646,221.30863344318237,165.46135899406357,152.20732495522924,158.8343419746464,157.1722217616333,111.62594379799084,45.54627796364244,2.847231474929164,1.412970332273232,mp-576,576
95,Na2TlSb,3.62015503,-0.3634825641091952,0.0002529,0,0,22.264892503418782,22.264892503418782,18.842923945769584,18.224466752116864,18.533695348943226,172.51713974666674,136.1449319266667,36.37220782000002,6.030937557295716,1.412970332273232,mp-866132,866132
96,ScCuO2,3.53734489,-2.724842914999999,5.795e-05,0,0,143.29380101583953,132.17563760396578,55.95098522801836,36.54174083181683,46.246363029917596,14.016731760045454,8.110343160045453,5.9063886,2.430306276994733,1.412970332273232,mp-3642,3642
97,Mn3PdN,5.45412518,-0.30100612375862,9.5420186,4,2,158.38668679870372,158.38668679870372,73.68834792178087,73.62954260357871,73.6589452626798,157.1722217616333,111.62594379799084,45.54627796364244,2.847231474929164,1.412970332273232,mp-10198,10198
98,Li2VF6,-0.68407458,-3.1301735368518515,0.9999983,1,1,60.25788244779996,60.24612611753442,19.73209145833957,-14.338831477766501,2.696629990286535,9.09782284682987,6.50380697640558,2.5940158704242884,1.6105948809133501,1.412970332273232,mp-753667,753667
99,Mg3P2,3.18591582,-0.47987253633333327,4.345e-05,0,0,57.05039239126794,57.050392391267955,39.051865213087076,39.03981990092619,39.04584255700664,157.1722217616333,111.62594379799084,45.54627796364244,2.847231474929164,1.412970332273232,mp-8085,8085
100,CaSiO3,2.16051419,-3.4250977463333347,8e-07,0,0,77.07788209510204,73.88323442809317,42.50214312314351,37.62428235553918,40.063212739341346,157.1722217616333,111.62594379799084,45.54627796364244,2.847231474929164,1.412970332273232,mp-4428,4428
101,CdSe,0.4845965,-0.8556073811718745,0.0,0,0,44.836771832750316,44.83677183275033,16.721179730779394,13.87078696835701,15.295983349568202,12.934648536539376,3.978558096538075,8.956090440001299,2.992672792004047,0.05902257988930417,mp-2691,2691
102,Al2Te5,3.75090219,-0.6262451414285712,0.0032352,0,0,9.599920125274316,2.9452687087935736,7.1269296908383035,1.8896633135370553,4.5082965021876795,18.621158280021096,9.615242260019366,9.005916020001733,3.0009858413530934,1.412970332273232,mp-9254,9254
103,LiCuS,5.06989729,-0.8829872671527781,1.66e-05,0,0,62.44983609334481,62.44939340113091,32.4781221577593,28.546182502968577,30.51215233036394,157.1722217616333,111.62594379799084,45.54627796364244,2.847231474929164,1.412970332273232,mp-753826,753826
104,Cu(AsO2)2,2.29345261,-1.4084543789285706,0.99995995,4,1,24.87427668993535,14.599475156915545,14.978292009446209,7.413358639087112,11.19582532426666,157.1722217616333,111.62594379799084,45.54627796364244,2.847231474929164,1.412970332273232,mp-22271,22271
105,Ni(AsO3)2,5.11287047,-1.6030796511111107,0.0,2,1,156.9257326654649,138.33119362201134,84.90956748877176,76.29160151900939,80.60058450389057,10.780342570002029,6.486058490002031,4.29428408,2.0722654463171457,1.412970332273232,mp-19384,19384
106,Li3YN2,2.19398232,-0.9433644386111114,2.11125e-05,0,0,80.90677719355068,80.90677719355068,46.938101174808644,41.599598959064835,44.268850066936736,14.887073620000004,8.910260560000003,5.976813060000002,2.4447521469465983,1.412970332273232,mp-1029592,1029592
107,LiMn2O4,2.90622875,-2.0231279091707717,6.9999956,4,1,111.93874444238979,111.9387444423898,-32.934407683971315,225.38198494851963,96.22378863227416,157.1722217616333,111.62594379799084,45.54627796364244,2.847231474929164,1.412970332273232,mp-22584,22584
108,Zr2InCo2,5.92791148,-0.3438642900000005,7.255e-05,0,0,132.37050909006444,132.31538966700356,53.87150987727732,51.346316403017326,52.60891314014732,157.1722217616333,111.62594379799084,45.54627796364244,2.847231474929164,1.412970332273232,mp-22150,22150
109,WO3,-2.14050911,-2.060572389464286,3.04e-05,0,0,97.9028269959192,95.31889542787951,64.05810198152363,34.556768390552186,49.30743518603791,157.1722217616333,111.62594379799084,45.54627796364244,2.847231474929164,1.412970332273232,mp-675211,675211
110,Li3(FeO2)4,1.85655098,-1.7817173113333336,17.0021825,6,6,110.54139330442362,96.3655656319909,58.093764744821705,28.569062825223806,43.331413785022754,157.1722217616333,111.62594379799084,45.54627796364244,2.847231474929164,1.412970332273232,mp-756480,756480
111,Al12Mo,7.70537358,-0.1194131976923081,0.0049032,0,0,91.41939445991473,91.41939445991476,57.00993178614818,56.995154978448355,57.00254338229827,157.1722217616333,111.62594379799084,45.54627796364244,2.847231474929164,1.412970332273232,mp-550,550
112,ZnPd3,4.16073731,-0.3354845949999996,0.0001558,0,0,152.4708904946496,152.36305147024893,48.10609728214544,36.054592512839555,42.080344897492495,157.1722217616333,111.62594379799084,45.54627796364244,2.847231474929164,1.412970332273232,mp-865425,865425
113,K3Sn,1.43197871,-0.04045085600000009,1.0001852,1,1,9.4721616760406,9.472161676040594,3.787527265020181,-1.2720294035285584,1.2577489307458114,157.1722217616333,111.62594379799084,45.54627796364244,2.847231474929164,1.412970332273232,mp-973614,973614
114,GaP,5.68946283,0.16381392458333366,0.0016152,0,0,75.26268208250795,74.85492500078631,42.023339841008585,23.252138165506146,32.637739003257366,157.1722217616333,111.62594379799084,45.54627796364244,2.847231474929164,1.412970332273232,mp-971631,971631
115,SbPd,7.42785364,-0.5375621399999995,0.0044707,0,0,103.98773208962648,103.94686828371884,31.63915630572425,27.30346650470357,29.47131140521391,157.1722217616333,111.62594379799084,45.54627796364244,2.847231474929164,1.412970332273232,mp-1769,1769
116,CaMnO3,2.96979386,-2.5004380640862065,3.00127905,4,1,146.87768582832862,146.60257634026036,93.21100530834276,91.93129565886318,92.57115048360296,157.1722217616333,111.62594379799084,45.54627796364244,2.847231474929164,1.412970332273232,mp-19201,19201
117,TiGeRu2,8.15590251,-0.6982344895833341,0.0044535,0,0,226.4090994237079,226.40909942370786,116.56908421513383,115.85089898396593,116.20999159954988,157.1722217616333,111.62594379799084,45.54627796364244,2.847231474929164,1.412970332273232,mp-865640,865640
118,Ca5(AlSb3)2,5.01380416,-0.8593428873076925,7.62e-05,0,0,39.41373094887184,38.99142761771856,23.399586358219594,22.8592936933775,23.129440025798544,22.9835625,7.701515829999999,15.28204667,3.9092258402399827,1.412970332273232,mp-8439,8439
119,AgO,1.43593894,-0.445126380833333,3.75e-05,0,0,107.32722015872105,99.5143365022756,16.770241088149547,8.911620839832949,12.840930963991248,157.1722217616333,111.62594379799084,45.54627796364244,2.847231474929164,1.412970332273232,mp-499,499
120,BMo2,8.6262136,-0.3165036530555554,5.49e-05,0,0,293.5410347024916,293.47778098280816,141.5737676963174,141.1964916811323,141.38512968872485,157.1722217616333,111.62594379799084,45.54627796364244,2.847231474929164,1.412970332273232,mp-2501,2501
121,Hf2Al,4.913733,-0.2627914933333339,0.00232865,0,0,113.36267140805136,113.0771260202328,57.321541488159305,53.71064512974349,55.5160933089514,157.1722217616333,111.62594379799084,45.54627796364244,2.847231474929164,1.412970332273232,mp-12772,12772
122,TlF,0.96357279,-1.9668084166666664,0.0001307,0,0,5.6126083502308335,2.6307039473570515,4.721249981489636,2.013695867211708,3.367472924350672,20.905134563333334,17.103677716666667,3.8014568466666674,1.949732506439452,1.412970332273232,mp-720,720
123,Sr(FeP)2,5.9006658,-0.8237839306666672,0.0014789,0,0,100.36737283109744,83.35538532089056,61.93986708573087,52.39014923179122,57.16500815876104,157.1722217616333,111.62594379799084,45.54627796364244,2.847231474929164,1.412970332273232,mp-3299,3299
124,V2CrRu,7.25611513,-0.2442415212500002,0.0014719,0,0,242.97851648000636,242.9785164800063,110.8515267916715,101.22425300468507,106.03788989817829,157.1722217616333,111.62594379799084,45.54627796364244,2.847231474929164,1.412970332273232,mp-865494,865494
125,Ga3Pd7,4.73877979,-0.5876857332499987,0.00464,0,0,149.7005531323029,148.8802367485355,50.28734440628083,48.331542865270144,49.30944363577549,157.1722217616333,111.62594379799084,45.54627796364244,2.847231474929164,1.412970332273232,mp-31467,31467
126,Ba(CuAs)2,4.90060993,-0.5137336580000003,4.63e-05,0,0,60.12490937082654,54.67943746052042,32.275590446082454,22.64984886635611,27.46271965621928,157.1722217616333,111.62594379799084,45.54627796364244,2.847231474929164,1.412970332273232,mp-9247,9247
127,LaWN3,7.57654229,-1.2223762499999993,6.64e-05,0,0,173.75428027640808,166.81888825025732,73.01995937669935,41.89679799132816,57.45837868401375,81.38569145000001,67.91862771666668,13.467063733333335,3.6697498189022824,7.267482028366174,mp-989524,989524
128,NbCo3,5.48490396,-0.09328689916666733,1.9315428833333332,24,8,199.24241279880368,198.2122957715819,88.80199093849302,86.98198353770545,87.89198723809923,157.1722217616333,111.62594379799084,45.54627796364244,2.847231474929164,1.412970332273232,mp-570557,570557
129,Y2Ti2O7,3.09854819,-3.752764801818181,0.0001587,0,0,186.48236945089178,186.4823694508918,98.94707196289993,98.41084915968165,98.67896056129078,157.1722217616333,111.62594379799084,45.54627796364244,2.847231474929164,1.412970332273232,mp-5373,5373
130,NiAs2,6.28687562,-0.23977249333333303,0.002433225,0,0,112.6964430591441,112.69644305914407,58.072834028957935,49.42790957856567,53.7503718037618,157.1722217616333,111.62594379799084,45.54627796364244,2.847231474929164,1.412970332273232,mp-21873,21873
131,SrAl2O4,1.76690931,-3.453297489761905,0.00016401666666666665,0,0,80.5217547334266,78.09735895311837,42.09902979995724,41.50587701212836,41.8024534060428,10.462693586659576,7.570646466659575,2.892047119999999,1.70060198753265,0.14369195488961867,mp-5492,5492
132,SnGe,-1.71824278,0.49202183000000055,0.0002127,0,0,8.897440207130952,0.5180122402251025,5.064728904044679,0.18781538223160116,2.62627214313814,157.1722217616333,111.62594379799084,45.54627796364244,2.847231474929164,1.412970332273232,mp-995181,995181
133,LiGaSe2,0.80562194,-1.1465243457552088,5.295e-05,0,0,34.84892925926745,34.747520613705554,17.58691525387368,16.907094719582663,17.24700498672817,8.661229293333333,2.8909276266666666,5.770301666666666,2.402145221810427,0.1372621014701436,mp-11582,11582
134,CaNiN,4.99596592,-0.7948833350000003,0.0006183,0,0,102.36434790223215,93.33196898891796,60.780626783481004,48.907190499085516,54.843908641283264,157.1722217616333,111.62594379799084,45.54627796364244,2.847231474929164,1.412970332273232,mp-28645,28645
135,CaCO3,1.19184021,-2.6748165400000006,4.905e-05,0,0,74.87272670714022,67.89360534790025,32.98103789602837,26.878355856888998,29.929696876458685,157.1722217616333,111.62594379799084,45.54627796364244,2.847231474929164,1.412970332273232,mp-553939,553939
136,ZrS,7.24716913,-1.6850343415625009,3.62e-05,0,0,121.66236374181807,116.86444837027271,54.625185274154184,33.2946913120047,43.959938293079446,157.1722217616333,111.62594379799084,45.54627796364244,2.847231474929164,1.412970332273232,mp-7859,7859
137,KF,-2.78604692,-2.9359205227499996,1e-06,0,0,28.86914320487238,28.869143204872376,16.95087059245691,16.054993956018215,16.502932274237562,5.251731170056304,3.157719133389849,2.0940120366664536,1.4470701560969508,1.412970332273232,mp-463,463
138,Al(SnO2)2,6.73268483,-1.9974967407142847,3.27e-05,0,0,131.05588966256997,125.34691028945558,49.55186940985835,42.5269765734883,46.03942299167332,157.1722217616333,111.62594379799084,45.54627796364244,2.847231474929164,1.412970332273232,mp-1444267,1444267
139,GaCuI4,1.61767957,-0.6676176529166664,0.0004964,0,0,5.519512964556253,3.7146168618278748,5.166355641400892,3.828835317061306,4.497595479231099,6.198004210000001,1.510056183333333,4.687948026666667,2.1651669743155297,0.05348011312628273,mp-29403,29403
140,Y3SnC,4.97800543,-0.6580991490000002,0.0012204,0,0,82.36943532826547,82.36943532826545,63.13872060021251,62.22214422007376,62.68043241014313,157.1722217616333,111.62594379799084,45.54627796364244,2.847231474929164,1.412970332273232,mp-10608,10608
141,CrFeCoNi,6.49703246,0.011929574999999026,1.10635165,8,8,174.19913821759516,172.96157155644806,105.1008287715162,101.92944182168435,103.51513529660028,157.1722217616333,111.62594379799084,45.54627796364244,2.847231474929164,1.412970332273232,mp-1012640,1012640
142,AlV2C,7.13861002,-0.51590133875,0.00235135,0,0,170.76630999207106,170.7229815403479,131.7978450144293,130.09928993992048,130.9485674771749,157.1722217616333,111.62594379799084,45.54627796364244,2.847231474929164,1.412970332273232,mp-1025497,1025497
143,MnSbPd2,6.82276898,-0.3272156069827581,4.2675451,1,1,120.59934316245901,120.59934316245936,29.482636736942535,-5.38265519750081,12.049990769720862,157.1722217616333,111.62594379799084,45.54627796364244,2.847231474929164,1.412970332273232,mp-3499,3499
144,CaZnSO,2.14203014,-2.1743319695312504,3.78e-05,0,0,69.46902726908786,68.48243855890853,32.65302728408053,32.19246317140984,32.42274522774518,11.535032900000607,6.746448416667274,4.7885844833333335,2.1882834558926167,1.1223945260914399,mp-7204,7204
145,MgCrF6,-2.41494277,-3.120051798125,1.9998605,1,1,25.78867217435077,18.62752257877902,35.55846624381175,25.02394338651322,30.291204815162487,5.969821359998364,3.4516165099983636,2.5182048500000005,1.5868852668041256,1.412970332273232,mp-554955,554955
146,Ca3(GaNi)4,4.27946999,-0.48715241545454546,0.0012859,0,0,77.26384020878797,77.26384020878798,35.410402256045515,35.387986070784955,35.39919416341523,157.1722217616333,111.62594379799084,45.54627796364244,2.847231474929164,1.412970332273232,mp-11285,11285
147,NbRu,6.96410301,-0.15387914249999923,0.1230485,1,1,234.38208539302832,234.38208539302832,13.741093084280154,344.53101027248607,179.13605167838313,157.1722217616333,111.62594379799084,45.54627796364244,2.847231474929164,1.412970332273232,mp-11516,11516
148,Nb2O5,0.28196622,-3.0266677264285726,0.0002571,0,0,144.03686849174287,133.40032815412405,53.58924692636463,43.97348938936016,48.781368157862396,22.50784255361142,17.290687710269765,5.217154843341656,2.2841092012733664,1.412970332273232,mp-1595,1595
149,ZrO2,3.81141522,-3.7447109966666665,7.6e-06,0,0,234.73599147541324,234.7359914754133,118.75749580690878,86.36978668817449,102.56364124754163,157.1722217616333,111.62594379799084,45.54627796364244,2.847231474929164,1.412970332273232,mp-1565,1565
150,AlPd5,4.66054003,-0.46269488958333344,5.605e-05,0,0,161.64947207590052,161.57251784149307,54.93957337374708,47.84771370436085,51.39364353905397,157.1722217616333,111.62594379799084,45.54627796364244,2.847231474929164,1.412970332273232,mp-605663,605663
151,BeO,2.6082371,-3.1028558024999997,2.29e-05,0,0,208.3516505700462,208.34961063327935,157.31495945516468,154.98023858771768,156.14759902144118,7.348809943363005,4.246494916696338,3.1023150266666666,1.761338986869554,0.25456488092431023,mp-2542,2542
152,AlZnRh2,6.72949472,-0.7893755875000004,0.001028,0,0,184.71794395395247,184.71794395395244,81.19409856652088,80.89101449793723,81.04255653222906,157.1722217616333,111.62594379799084,45.54627796364244,2.847231474929164,1.412970332273232,mp-866033,866033
153,SO2,-2.00973933,-1.5221963593749994,0.0,0,0,4.7420676473861585,4.646763629861399,2.925712149482786,2.4367026805095957,2.681207414996191,5.236407387126257,3.0646152504593105,2.171792136666946,1.4737001515460824,0.1452696441359829,mp-27726,27726
154,RbBrO3,-0.53191632,-1.0529598459999996,0.0001307,0,0,16.504764926223125,13.93169372108497,10.078766621456007,8.783871249252677,9.43131893535434,6.948557916750322,4.236301460083655,2.712256456666667,1.6468929706166904,0.6190369200960725,mp-28872,28872
155,Si,10.07587372,0.5129486300000003,0.00018625,0,0,85.50232783533427,85.46787736399905,37.81363262414449,26.55017056855248,32.18190159634848,157.1722217616333,111.62594379799084,45.54627796364244,2.847231474929164,1.412970332273232,mp-10649,10649