,formula_pretty,efermi,formation_energy_per_atom,total_magnetization_normalized_formula_units,num_magnetic_sites,num_unique_magnetic_sites,k_voigt,k_reuss,g_voigt,g_reuss,g_vrh,e_total,e_ionic,e_electronic,n,e_ij_max,material_id,b
3404,LiCuO,2.60535056,-1.4329465902777774,0.000246775,0,0,73.44280207954678,69.69129410867805,34.948162197439665,29.85752299140362,32.40284259442164,8.286468150047718,2.658641590063658,5.627826559984058,2.3723040614525064,1.412970332273232,mp-5127,5127
3405,NaMgPb2,4.97124444,-0.12336698663793078,0.0081279,0,0,30.633033012464278,30.63303301246436,7.249151232387853,-3.212488484778968,2.0183313738044424,157.1722217616333,111.62594379799084,45.54627796364244,2.847231474929164,1.412970332273232,mp-865107,865107
3406,KAgSe,1.56917696,-0.822426855670139,0.0001688,0,0,27.015782507304,27.015714797656756,13.353055570510266,12.778498780288091,13.065777175399178,18.24601704,11.16769715333333,7.0783198866666694,2.6605112077694146,1.412970332273232,mp-16236,16236
3407,Zr3Ga2,3.93082148,-0.5468909720000006,0.00402765,0,0,112.0863946717969,111.5470254686942,68.89625318471441,64.41412511811431,66.65518915141436,157.1722217616333,111.62594379799084,45.54627796364244,2.847231474929164,1.412970332273232,mp-30684,30684
3408,Ca(MnAs)2,4.48195437,-0.4712070891724139,5.222442,2,1,59.84255920915052,59.333715345445455,37.29247762710681,31.475967278382782,34.384222452744794,157.1722217616333,111.62594379799084,45.54627796364244,2.847231474929164,1.412970332273232,mp-5498,5498
3409,Tl2SO4,1.66391084,-1.674121211041666,0.000305025,0,0,24.221588542631164,22.9828401645896,7.9204674443141165,7.278504665095138,7.599486054704627,157.1722217616333,111.62594379799084,45.54627796364244,2.847231474929164,1.412970332273232,mp-4112,4112
3410,HfBrN,1.58397797,-2.006199949166666,9.89e-05,0,0,54.88665269299536,21.021651105909523,32.341853579295524,2.930359611198788,17.636106595247156,14.147854700000002,9.364728543333333,4.783126156666667,2.1870359294411847,1.412970332273232,mp-568346,568346
3411,TiMo,6.35297432,0.700724263333333,4.955e-05,0,0,140.3044705340452,140.15349765041222,29.01725918560841,35.07181090377542,32.04453504469191,157.1722217616333,111.62594379799084,45.54627796364244,2.847231474929164,1.412970332273232,mp-998968,998968
3412,K3Sm,0.47372078,0.5651636314999999,0.1679742,1,1,6.674724075107311,6.577115847998132,4.204207002920033,24.544178980038158,14.374192991479095,157.1722217616333,111.62594379799084,45.54627796364244,2.847231474929164,1.412970332273232,mp-973554,973554
3413,BeCl2,-2.00823734,-1.8374670666666664,2.97e-05,0,0,7.060140301069159,1.4433848623392902,3.7606248890611047,0.5169286676180093,2.138776778339557,3.0963501064757097,0.7891924698167697,2.3071576366589404,1.5189330586497025,1.412970332273232,mp-23267,23267
3414,K(CoSe)2,3.82877466,-0.6670158995374997,2.251131,2,1,41.9793682776341,37.30015793190788,25.382139684574618,22.52465718482809,23.953398434701356,157.1722217616333,111.62594379799084,45.54627796364244,2.847231474929164,1.412970332273232,mp-4668,4668
3415,Hf2P,6.43487251,-1.0043121022222232,9.634166666666666e-05,0,0,148.83471240205142,148.81802796561485,78.87825660952997,73.39503932394429,76.13664796673713,157.1722217616333,111.62594379799084,45.54627796364244,2.847231474929164,1.412970332273232,mp-504659,504659
3416,Rb2NbCl6,1.40140126,-2.021177776111111,1.0023781,1,1,9.467985660725127,9.467985660725128,4.136669152121505,3.501192812840949,3.818930982481227,157.1722217616333,111.62594379799084,45.54627796364244,2.847231474929164,1.412970332273232,mp-571513,571513
3417,NiTeO4,4.13067443,-1.3124008329166668,1e-06,4,1,67.3226724134206,9.891013742812484,45.56517644936385,7.381765721898102,26.473471085630976,157.1722217616333,111.62594379799084,45.54627796364244,2.847231474929164,1.412970332273232,mp-755176,755176
3418,NiBiO3,5.60229493,-1.3545721570000004,7.4e-06,2,2,124.50844568808436,119.15302374855993,55.94985280366208,54.762195417651554,55.35602411065682,157.1722217616333,111.62594379799084,45.54627796364244,2.847231474929164,1.412970332273232,mp-998527,998527
3419,DyCoO3,2.97651227,-2.6155286070000003,1.05e-06,4,1,155.01675345443164,154.65426569549638,65.50267969137236,61.98714804767002,63.74491386952119,157.1722217616333,111.62594379799084,45.54627796364244,2.847231474929164,1.412970332273232,mp-22137,22137
3420,SrAl4,5.32190309,-0.23230722333333348,0.0002029,0,0,53.95884758844354,52.51165092006934,30.583211216653446,29.542924882811693,30.06306804973257,157.1722217616333,111.62594379799084,45.54627796364244,2.847231474929164,1.412970332273232,mp-2775,2775
3421,V3FeO8,-0.64426744,-2.1993233091666666,7.0000609,4,4,6.883550103883455,6.463845792414947,12.569363840658095,11.393233861145726,11.981298850901911,157.1722217616333,111.62594379799084,45.54627796364244,2.847231474929164,1.412970332273232,mp-775001,775001
3422,CsMgBr3,-0.24219013,-1.9818030820862067,9.285e-05,0,0,11.00723689658475,10.375175486642242,5.563558658754057,2.2519916792500823,3.9077751690020697,10.88935011000173,7.920225576668398,2.9691245333333334,1.7231147765988584,1.412970332273232,mp-29750,29750
3423,BaCO3,1.11462859,-2.6482608819999998,0.00042635,0,0,53.192032927670446,42.81689088421438,22.649991987029978,17.43502754490321,20.042509765966592,157.1722217616333,111.62594379799084,45.54627796364244,2.847231474929164,1.412970332273232,mp-34195,34195
3424,Li3(CuO2)2,2.74809519,-1.582540591111111,1.000548,2,1,82.99545984403153,19.192903661435427,42.23729006881992,19.389830476805848,30.813560272812882,157.1722217616333,111.62594379799084,45.54627796364244,2.847231474929164,1.412970332273232,mp-545467,545467
3425,ScGaPt2,6.39808219,-0.9556376131249991,3.2e-06,0,0,148.30447549574814,148.30447549574805,13.52417074923807,-236.78630005148221,-111.63106465112207,157.1722217616333,111.62594379799084,45.54627796364244,2.847231474929164,1.412970332273232,mp-867923,867923
3426,V2NiSe4,5.04431287,-0.7888026527678572,2.0821547,3,2,30.427525375450386,15.379192383232523,14.521321274138732,9.2985739554231,11.909947614780915,157.1722217616333,111.62594379799084,45.54627796364244,2.847231474929164,1.412970332273232,mp-569662,569662
3427,Cu2S,6.2861082,-0.25742364104166704,0.000517125,0,0,93.81012825139268,92.18293856022314,29.41065197519596,28.138417724124476,28.77453484966022,19.136977036666664,6.082852283333334,13.054124753333332,3.6130492320660856,7.6901399999999995,mp-618991,618991
3428,KCoO2,1.6527541,-1.441618934500001,4.625e-06,4,1,45.52110004209846,42.205274881977424,18.23542958162282,41.65229400382278,29.9438617927228,157.1722217616333,111.62594379799084,45.54627796364244,2.847231474929164,1.412970332273232,mp-752556,752556
3429,Sr(FeAs)2,5.08129923,-0.5342483613333335,0.0029206,0,0,83.27240037729533,72.43363364940477,45.73203738284302,38.42621101678886,42.079124199815936,157.1722217616333,111.62594379799084,45.54627796364244,2.847231474929164,1.412970332273232,mp-4488,4488
3430,YSi2Rh3,6.82960591,-1.0212073577777783,0.0005114,0,0,175.69989638991032,172.47406855105078,99.49536670186158,98.2240585542863,98.85971262807394,157.1722217616333,111.62594379799084,45.54627796364244,2.847231474929164,1.412970332273232,mp-30028,30028
3431,Ba3Zr2O7,1.87987471,-3.519514509583333,0.0002765,0,0,118.95937204903248,118.6940307470998,67.30037854471975,64.65603508534385,65.9782068150318,47.090075230000004,42.419561910000006,4.67051332,2.161137043317707,1.412970332273232,mp-755895,755895
3432,MnCoP,8.30653906,-0.6425326829214567,2.998564975,8,2,200.05226458700656,197.18425656767434,108.65149221775236,106.05467864502232,107.35308543138734,157.1722217616333,111.62594379799084,45.54627796364244,2.847231474929164,1.412970332273232,mp-20249,20249
3433,ZrCrF6,0.97601315,-3.507315691875,4.0000096,1,1,74.42442281202996,74.42442281202996,-115.73158475123539,8.300256090630723,-53.71566433030233,157.1722217616333,111.62594379799084,45.54627796364244,2.847231474929164,1.412970332273232,mp-555506,555506
3434,LiGePd2,5.74009277,-0.6092348795833331,0.0004977,0,0,121.24083660579338,121.24083660578144,41.050666277967885,11.396501556245001,26.223583917106442,157.1722217616333,111.62594379799084,45.54627796364244,2.847231474929164,1.412970332273232,mp-29633,29633
3435,LiNbRh2,5.21388245,-0.4422452208333336,0.0001884,0,0,174.73433227096706,174.734332270967,65.89187597668293,64.47577954464829,65.18382776066561,157.1722217616333,111.62594379799084,45.54627796364244,2.847231474929164,1.412970332273232,mp-864631,864631
3436,NbN,7.1269216,-1.2481991524999998,0.0002504,0,0,313.92383192222843,311.7801080244098,213.59729134725637,207.45137008835533,210.52433071780587,157.1722217616333,111.62594379799084,45.54627796364244,2.847231474929164,1.412970332273232,mp-2634,2634
3437,PbCl2,1.85044846,-1.5549896666666665,0.000249125,0,0,19.315703407504497,16.830330536871525,9.86223942013916,5.4858282004372665,7.674033810288213,34.55200962,29.8390443,4.7129653199999995,2.170936507592979,1.412970332273232,mp-23291,23291
3438,TiSnO4,3.0453813,-2.7383046797222224,3.5e-05,0,0,165.7055986871716,164.20236066486297,49.767878540219115,43.585678153276575,46.676778346747845,142.28315865,136.8553046333333,5.427854016666665,2.3297755292445377,2.375384999999999,mp-773864,773864
3439,VCoSi,7.71164416,-0.5758834350000003,0.000251075,0,0,209.70306564298957,209.1320962499158,115.64970802645858,108.36188115704861,112.0057945917536,157.1722217616333,111.62594379799084,45.54627796364244,2.847231474929164,1.412970332273232,mp-21371,21371
3440,Sc2RuPt,6.11763296,-0.956615918749999,1.32e-05,0,0,147.27142550810413,147.2714255081041,60.74609513225049,60.38236508720818,60.56423010972934,157.1722217616333,111.62594379799084,45.54627796364244,2.847231474929164,1.412970332273232,mp-862371,862371
3441,Li2SbAu,6.0566162,-0.5858173516666669,0.0003533,0,0,53.492344648619856,53.49234464861988,28.3631018322758,11.012850787299875,19.687976309787835,157.1722217616333,111.62594379799084,45.54627796364244,2.847231474929164,1.412970332273232,mp-30404,30404
3442,HfAl3,7.42962835,-0.39529859499999986,0.0006337,0,0,106.1095673745449,105.95622211326584,80.35880342084265,79.22236264483263,79.79058303283765,157.1722217616333,111.62594379799084,45.54627796364244,2.847231474929164,1.412970332273232,mp-568718,568718
3443,TiSiRu2,9.3610717,-0.8903229508333332,0.0003369,0,0,242.90945083595312,242.9094508359531,131.82366875399018,129.02040195134757,130.42203535266887,157.1722217616333,111.62594379799084,45.54627796364244,2.847231474929164,1.412970332273232,mp-865681,865681
3444,ZrTiAs,6.48813631,-0.9835340377777774,8.05e-06,0,0,137.68412020050462,137.59527654273364,75.98044063623112,65.5977774679022,70.78910905206666,157.1722217616333,111.62594379799084,45.54627796364244,2.847231474929164,1.412970332273232,mp-30147,30147
3445,TlCuS2,4.47291496,-0.47438865864583324,0.0001152,0,0,56.59659841577016,56.56655064215333,24.727821932497715,20.47725647300387,22.60253920275079,157.1722217616333,111.62594379799084,45.54627796364244,2.847231474929164,1.412970332273232,mp-14089,14089
3446,Mg3In,3.73554701,-0.08232372999999993,0.00106,0,0,42.05145055054905,42.051450550549056,16.862270285168172,16.12566179799107,16.493966041579622,157.1722217616333,111.62594379799084,45.54627796364244,2.847231474929164,1.412970332273232,mp-569125,569125
3447,CaSiO3,1.65505433,-3.4480273106666677,0.00028083333333333335,0,0,93.49656068199914,91.58281827222659,48.55112115454274,44.45064600259221,46.500883578567475,157.1722217616333,111.62594379799084,45.54627796364244,2.847231474929164,1.412970332273232,mp-4429,4429
3448,Ca2SiO4,1.69778287,-3.4766319846428573,0.00026435,0,0,90.61249839015788,88.63097007081349,49.504945273431666,47.81817904487989,48.66156215915578,157.1722217616333,111.62594379799084,45.54627796364244,2.847231474929164,1.412970332273232,mp-4481,4481
3449,Ti6Sn5,8.2319308,-0.3724171422727277,0.67581805,0,0,104.97941799024471,104.97797454570367,55.9702355219209,54.90514836602141,55.43769194397115,157.1722217616333,111.62594379799084,45.54627796364244,2.847231474929164,1.412970332273232,mp-20382,20382
3450,TiMn2,6.49755548,-0.2721584388984688,0.585530425,8,2,208.96808956915527,208.63961979227656,62.562646375858776,59.9300115908107,61.246328983334735,157.1722217616333,111.62594379799084,45.54627796364244,2.847231474929164,1.412970332273232,mp-1949,1949
3451,Al,7.84919188,0.09244398000000009,0.0002383,0,0,69.30077157491269,69.30077157491269,15.358970602890436,-531.4160861617215,-258.02855777941556,157.1722217616333,111.62594379799084,45.54627796364244,2.847231474929164,1.412970332273232,mp-998860,998860
3452,SnPbO3,4.9205372,-1.7224393635,0.0105223,0,0,116.26164287079193,116.26164287079159,49.705017710250374,49.23755132863218,49.47128451944128,157.1722217616333,111.62594379799084,45.54627796364244,2.847231474929164,1.412970332273232,mp-504543,504543
3453,BaMoO4,0.25887702,-2.6545541241666677,0.00218165,0,0,56.17561384129172,55.67830605314291,24.13494740320804,22.050824132482983,23.092885767845512,10.021189653708468,6.534036227422882,3.487153426285586,1.8673921458241132,1.412970332273232,mp-19276,19276
3454,TlPd3,5.72633554,-0.21529881083333358,0.000788,0,0,133.06561789890247,132.7801269346791,44.09318320312756,34.267897853604055,39.18054052836581,157.1722217616333,111.62594379799084,45.54627796364244,2.847231474929164,1.412970332273232,mp-571030,571030
3455,YAl3O6,2.05298972,-3.512928624166667,0.0,0,0,67.10454018414501,34.06958825603237,42.41288353147668,26.75129581686369,34.582089674170184,157.1722217616333,111.62594379799084,45.54627796364244,2.847231474929164,1.412970332273232,mp-768572,768572
3456,K2Te2Pt,2.68098742,-0.9762814352000003,0.0004365,0,0,23.812787843235103,20.82084530604518,12.426997391179109,7.632702775337063,10.029850083258086,12.078793249915662,4.990848449915671,7.087944799999993,2.6623194398869554,1.412970332273232,mp-8623,8623
3457,InPd3,5.6246569,-0.43425166250000036,0.0025555,0,0,140.62400238456968,140.62359606955533,43.91552265748382,25.507651338798812,34.711586998141314,157.1722217616333,111.62594379799084,45.54627796364244,2.847231474929164,1.412970332273232,mp-510436,510436
3458,TiZnO3,-0.27468382,-2.7254015106666665,5.825e-05,0,0,69.63952649671916,57.996501711136744,28.44760065299139,20.327080658778613,24.387340655885,157.1722217616333,111.62594379799084,45.54627796364244,2.847231474929164,1.412970332273232,mp-635713,635713
3459,Nb3Ge,5.93691925,-0.26631882749999924,0.5080796,0,0,171.57112057230827,171.57112057230825,44.00799761079824,43.34967493043088,43.67883627061456,157.1722217616333,111.62594379799084,45.54627796364244,2.847231474929164,1.412970332273232,mp-1373,1373
3460,Fe7C3,7.06178105,0.0798248545000007,11.5519517,14,3,242.88784588611009,241.92534576604092,91.89483446611573,91.73616668520327,91.8155005756595,157.1722217616333,111.62594379799084,45.54627796364244,2.847231474929164,1.412970332273232,mp-18257,18257
3461,Pd(SeBr3)2,-0.74596966,-0.5885615588541668,0.0001241,0,0,2.6128858814974754,1.4542329341501166,2.797813223054058,1.5833986344745776,2.1906059287643176,157.1722217616333,111.62594379799084,45.54627796364244,2.847231474929164,1.412970332273232,mp-29496,29496
3462,YCu2,5.14481989,-0.26105899888888945,0.00025215,0,0,81.43542360443959,78.55996957477186,22.982285969746847,20.581312674094903,21.781799321920875,157.1722217616333,111.62594379799084,45.54627796364244,2.847231474929164,1.412970332273232,mp-2698,2698
3463,Ca3BN3,4.22677379,-1.238514797738095,1.63e-05,0,0,80.9228309657816,80.91002547606404,39.73466125822844,26.95960769150207,33.34713447486526,18.05829701333333,12.66959578,5.388701233333332,2.321357627194339,1.412970332273232,mp-30315,30315
3464,HfB2,8.05107642,-1.0178834761111102,0.0002424,0,0,251.6669289619347,250.1107914349418,245.605736576874,238.96479683629525,242.28526670658462,157.1722217616333,111.62594379799084,45.54627796364244,2.847231474929164,1.412970332273232,mp-1994,1994
3465,LiAg2Ge,4.85793649,-0.16372422791666663,0.0017213,0,0,65.24699777968448,65.24699777955877,28.601553553963917,11.029641836691384,19.81559769532765,157.1722217616333,111.62594379799084,45.54627796364244,2.847231474929164,1.412970332273232,mp-9472,9472
3466,Li2VO2,4.02839368,-2.051847119333334,3.000004,1,1,112.33221771767106,111.60478967427024,80.25392968517387,77.34037593675602,78.79715281096495,157.1722217616333,111.62594379799084,45.54627796364244,2.847231474929164,1.412970332273232,mp-774411,774411
3467,Y2O3,1.54096723,-3.9709200774166673,8.2e-06,0,0,137.7348820368666,137.73488203686654,62.119440762063974,60.87184653695773,61.49564364951085,157.1722217616333,111.62594379799084,45.54627796364244,2.847231474929164,1.412970332273232,mp-2652,2652
3468,Ca(AlGe)2,5.35576112,-0.39084084000000063,0.0040889,0,0,58.42230906525364,56.752895146098,39.71319758350499,38.16344202576387,38.93831980463443,157.1722217616333,111.62594379799084,45.54627796364244,2.847231474929164,1.412970332273232,mp-3862,3862
3469,LaSi,8.23969548,-0.7028952825000001,0.016006075,0,0,68.56908235472582,68.50665988935945,41.82213256839478,39.76239062429122,40.792261596342996,157.1722217616333,111.62594379799084,45.54627796364244,2.847231474929164,1.412970332273232,mp-1860,1860
3470,ZrCo2,5.40524069,-0.3113923850000013,0.0211448,0,0,164.04427654615586,164.04427654601972,76.36426097478338,75.88014471240965,76.12220284359651,157.1722217616333,111.62594379799084,45.54627796364244,2.847231474929164,1.412970332273232,mp-929,929
3471,MoP,9.58536968,-0.6556343416666675,0.0040538,0,0,223.44421942873254,215.47545377519327,136.96674937120278,131.94750523702828,134.45712730411555,157.1722217616333,111.62594379799084,45.54627796364244,2.847231474929164,1.412970332273232,mp-219,219
3472,MnB,3.79861388,-0.0007014422988502744,1.007574575,8,1,163.71417716181492,147.4394328449444,91.91377345273544,7.982584228956225,49.948178840845834,157.1722217616333,111.62594379799084,45.54627796364244,2.847231474929164,1.412970332273232,mp-616575,616575
3473,ZrCuF6,-0.85088302,-0.6005423993750005,0.4174754,1,1,17.03933915387287,11.731111105014916,18.39250040948035,11.194183814977958,14.793342112229153,157.1722217616333,111.62594379799084,45.54627796364244,2.847231474929164,1.412970332273232,mp-560865,560865
3474,LiCoF4,-1.8725392,-2.4610834038888894,2.00009795,2,1,61.83999588955382,60.706521981537,36.18634954181769,30.642112380408694,33.41423096111319,6.478732893302815,3.284851666630613,3.1938812266722025,1.787143314530819,1.412970332273232,mp-554689,554689
3475,Ni4W,7.80024469,-0.10786662199999882,0.0048015,0,0,234.151840595311,234.1436575356859,106.68387471912698,88.91816719922768,97.80102095917732,157.1722217616333,111.62594379799084,45.54627796364244,2.847231474929164,1.412970332273232,mp-30811,30811
3476,Ga2Te3,3.51785943,-0.5752112840000002,0.0003197,0,0,22.473722061480128,21.83848944295208,16.045607894216896,13.847774608771903,14.9466912514944,15.727117017387542,4.054550690697837,11.672566326689706,3.4165137679643127,0.19570916111497466,mp-38970,38970
3477,YRh2,5.47364455,-0.7316252238888895,7.735e-05,0,0,152.48070276651097,152.480702766511,63.99964853110769,60.09322688626554,62.04643770868661,157.1722217616333,111.62594379799084,45.54627796364244,2.847231474929164,1.412970332273232,mp-921,921
3478,CaCdSn,4.71616179,-0.4994167372222225,0.00020276666666666667,0,0,41.98568800004908,41.951744354320425,25.921052722229167,25.49263471472594,25.706843718477554,157.1722217616333,111.62594379799084,45.54627796364244,2.847231474929164,1.412970332273232,mp-568695,568695
3479,Ba5Al5Pb,3.77369068,-0.3308279290909091,0.0048755,0,0,28.803846171771106,28.474019533783213,17.550128178698397,17.28528537475527,17.41770677672683,157.1722217616333,111.62594379799084,45.54627796364244,2.847231474929164,1.412970332273232,mp-568809,568809
3480,ScSnAu,6.94871125,-0.6917537583333336,2.145e-05,0,0,85.33964943081307,79.01466989886197,37.9209372842847,36.66689355574357,37.29391542001413,157.1722217616333,111.62594379799084,45.54627796364244,2.847231474929164,1.412970332273232,mp-6919,6919