,formula_pretty,efermi,formation_energy_per_atom,total_magnetization_normalized_formula_units,num_magnetic_sites,num_unique_magnetic_sites,k_voigt,k_reuss,g_voigt,g_reuss,g_vrh,e_total,e_ionic,e_electronic,n,e_ij_max,material_id,b
2168,Li2FeO2,2.24031523,-1.825342791833333,4.000014125,1,1,111.43858349642291,110.77826179370751,36.03598263685332,-11.321682349593496,12.357150143629912,157.1722217616333,111.62594379799084,45.54627796364244,2.847231474929164,1.412970332273232,mp-754868,754868
2169,V,6.02663419,0.24714039999999926,0.0020693,0,0,178.8899579152201,178.8899579152201,-43.98013478096279,10.942314518856328,-16.518910131053232,157.1722217616333,111.62594379799084,45.54627796364244,2.847231474929164,1.412970332273232,mp-8632,8632
2170,Nb6C5,6.95372752,-0.5454537227272724,0.0016601,0,0,238.9509654165507,238.77069510516128,163.27622201748247,158.81463899554086,161.04543050651165,157.1722217616333,111.62594379799084,45.54627796364244,2.847231474929164,1.412970332273232,mp-2760,2760
2171,C,-0.24016942,0.007755827500000478,1.725e-06,0,0,226.38700059096163,3.6768101037762815,178.00442867172552,2.996716603273729,90.50057263749963,157.1722217616333,111.62594379799084,45.54627796364244,2.847231474929164,1.412970332273232,mp-997182,997182
2172,TlPt2Se3,4.06078959,-0.6777812917274305,0.0002135,0,0,32.12957333920619,15.412686942297723,18.384478796008207,10.497019500951135,14.440749148479672,21.099286186666664,3.96531005,17.133976136666664,4.139320733727535,1.412970332273232,mp-541487,541487
2173,YCuSb2,7.31355379,-0.7118801979166669,7.05e-05,0,0,71.48036935541701,69.0277339811245,32.284114529605816,29.665778710384732,30.974946619995272,157.1722217616333,111.62594379799084,45.54627796364244,2.847231474929164,1.412970332273232,mp-19943,19943
2174,Mg3Cu,4.2274777,-0.007181777500000042,0.0022048,0,0,47.18658522029158,45.38682465400388,31.826947352003156,21.10478142250106,26.465864387252108,157.1722217616333,111.62594379799084,45.54627796364244,2.847231474929164,1.412970332273232,mp-978279,978279
2175,Cu2HgI4,2.72668927,-0.4438017307142853,0.0026049,0,0,18.272638330370544,18.201118339182297,9.8572886864529,8.33253214884693,9.094910417649915,12.016218523333334,3.42401507,8.592203453333333,2.9312460581352315,0.15497000000000002,mp-568598,568598
2176,MnFeO3,3.53638441,-1.8242621658362055,9.00013435,16,4,164.08566326503058,164.0394659774417,75.39193138690341,75.05592968197857,75.223930534441,157.1722217616333,111.62594379799084,45.54627796364244,2.847231474929164,1.412970332273232,mp-674482,674482
2177,Eu(MgSb)2,4.5556402,-0.8096181210000004,7.0035396,1,1,38.84904586533374,38.387049571540956,26.662302969684273,25.525665308931416,26.093984139307842,157.1722217616333,111.62594379799084,45.54627796364244,2.847231474929164,1.412970332273232,mp-582736,582736
2178,Al4Mo,7.60367216,-0.2516156166666671,0.004785033333333333,0,0,111.83302904192858,110.76295565781,75.4610711216551,72.79362417159068,74.1273476466229,157.1722217616333,111.62594379799084,45.54627796364244,2.847231474929164,1.412970332273232,mp-30180,30180
2179,KCu4S3,4.80878593,-0.5932982465468748,0.0013989,0,0,47.817106693841644,47.2289770871456,19.971877592370213,17.532630984388977,18.752254288379596,157.1722217616333,111.62594379799084,45.54627796364244,2.847231474929164,1.412970332273232,mp-27677,27677
2180,MnFeO4,2.35353585,-1.5111327971551727,7.0008614,4,2,151.99628059986927,151.34623723485205,64.14568831313032,49.663631465029944,56.904659889080136,157.1722217616333,111.62594379799084,45.54627796364244,2.847231474929164,1.412970332273232,mp-761315,761315
2181,Sn,3.8782948,0.029621803478260954,0.0,0,0,31.793966857219864,31.793966857219864,17.427431354154496,17.42669103992808,17.42706119704129,157.1722217616333,111.62594379799084,45.54627796364244,2.847231474929164,1.412970332273232,mp-949028,949028
2182,Li9(CoO4)2,0.44895644,-1.8213613784210534,9.0009638,8,6,71.24019936197877,70.16265503333835,42.633151848012616,40.8317159797888,41.73243391390071,157.1722217616333,111.62594379799084,45.54627796364244,2.847231474929164,1.412970332273232,mp-755939,755939
2183,CsNiF3,-1.12887035,-2.608865408086207,2.0000877,2,1,26.040948725254907,24.205064226151126,11.65872759469067,4.76720012579072,8.212963860240695,17.698380970032073,15.392442353365409,2.305938616666666,1.5185317305432462,1.412970332273232,mp-557772,557772
2184,Li2CuO2,2.59278148,-1.6623768453333334,1.0015248,1,1,92.28346978937712,85.1766323585122,49.45986729019509,38.77576852688773,44.11781790854141,157.1722217616333,111.62594379799084,45.54627796364244,2.847231474929164,1.412970332273232,mp-4711,4711
2185,Cs2CuF6,-2.11402282,-2.2822790700957847,1.0013839,1,1,15.606975621276332,15.60697562127633,1.1661496372490565,29.224240597638186,15.195195117443621,157.1722217616333,111.62594379799084,45.54627796364244,2.847231474929164,1.412970332273232,mp-28692,28692
2186,Sr(Si3N4)2,5.69386044,-1.3035382451111124,0.0003692,0,0,148.4828321118392,146.87846504132602,101.15722343678797,96.71283102818559,98.93502723248679,13.432889943333334,8.821560296666666,4.611329646666667,2.1474006721305336,1.3361487121574454,mp-567278,567278
2187,Mg2In,5.00388349,-0.07329850111111114,0.0004036,0,0,40.82089339333423,39.03405245585241,12.867179365689287,11.082438382170984,11.974808873930137,157.1722217616333,111.62594379799084,45.54627796364244,2.847231474929164,1.412970332273232,mp-31326,31326
2188,Mg2PN3,5.40731787,-1.116398228055555,0.0,0,0,152.77980163185228,148.06624315174028,90.19753410690036,83.63759507541907,86.91756459115972,9.92768438,5.509978086666667,4.417706293333333,2.1018340308724026,2.710455143587512,mp-3933,3933
2189,CoBMo,8.0979496,-0.43806527222222275,0.0004791,0,0,304.94919344454877,304.7018690018721,181.23986607860482,174.40270817670037,177.8212871276526,157.1722217616333,111.62594379799084,45.54627796364244,2.847231474929164,1.412970332273232,mp-21347,21347
2190,Co2NiO4,3.93153905,-1.196680113571428,5.9874849,10,5,160.06767930291537,159.76865485189455,64.91911840702454,57.94744063701304,61.43327952201879,157.1722217616333,111.62594379799084,45.54627796364244,2.847231474929164,1.412970332273232,mp-38683,38683
2191,NdBr3,0.16000813,-2.3103355893750006,0.00065755,0,0,16.0771739481077,2.2485751348571723,8.838756574353619,0.7625373780242573,4.800646976188938,157.1722217616333,111.62594379799084,45.54627796364244,2.847231474929164,1.412970332273232,mp-27975,27975
2192,NaPdO2,2.90869422,-1.178613644137931,0.985787,1,1,95.03236836602542,84.39470824794755,47.42011575160779,42.37667328083947,44.89839451622363,157.1722217616333,111.62594379799084,45.54627796364244,2.847231474929164,1.412970332273232,mp-755378,755378
2193,ScCd3,3.22563794,-0.21440229624999985,0.0014574,0,0,61.14796841025533,60.8919265218557,27.479723446050595,25.69851768230911,26.58912056417985,157.1722217616333,111.62594379799084,45.54627796364244,2.847231474929164,1.412970332273232,mp-30494,30494
2194,Rh,7.14604113,0.0,0.0064721,0,0,253.45671945613154,253.4567194561315,149.04607038533115,140.6487878719134,144.84742912862228,157.1722217616333,111.62594379799084,45.54627796364244,2.847231474929164,1.412970332273232,mp-74,74
2195,CsCl,-0.43359418,-2.2072112289655172,0.000271,0,0,15.225482459022304,15.2254824590223,8.569809174745842,6.774234562356283,7.672021868551063,157.1722217616333,111.62594379799084,45.54627796364244,2.847231474929164,1.412970332273232,mp-22865,22865
2196,MgAg,4.19498921,-0.25070454333333325,0.0010003,0,0,64.63375134227628,64.63375134227627,34.43662667363811,24.599246300236743,29.517936486937426,157.1722217616333,111.62594379799084,45.54627796364244,2.847231474929164,1.412970332273232,mp-2696,2696
2197,Zn2RhAu,4.81015187,-0.3146363875000002,1.85e-05,0,0,143.95689101937194,143.95689101934337,24.50372967678683,6565.863282249953,3295.18350596337,157.1722217616333,111.62594379799084,45.54627796364244,2.847231474929164,1.412970332273232,mp-864844,864844
2198,KAlF4,-1.53458073,-3.6359540938333335,0.0,0,0,59.090468470187226,55.65628942950657,30.0787393137151,1.7053327033240144,15.892036008519558,10.596231583333333,8.660278736666667,1.9359528466666662,1.3913852258331143,1.412970332273232,mp-5347,5347
2199,Ca(ZnP)2,4.1873473,-0.700753461333333,5.2e-06,0,0,67.38297937176685,66.42607667224617,46.6169233075468,44.75448230504898,45.68570280629789,20.22527238999508,9.10644215332841,11.118830236666668,3.334491001137455,1.412970332273232,mp-9569,9569
2200,Mn2P,8.4242468,-0.5138673952873568,3.5360416000000003,6,2,194.7335802150443,194.08073025655514,99.41635690123734,97.71690227524256,98.56662958823995,157.1722217616333,111.62594379799084,45.54627796364244,2.847231474929164,1.412970332273232,mp-1849,1849
2201,Zr,4.65732508,0.0392637399999991,0.0025517,0,0,90.12674026296368,90.12674026296368,33.59484075306078,27.274724188028202,30.43478247054449,157.1722217616333,111.62594379799084,45.54627796364244,2.847231474929164,1.412970332273232,mp-8635,8635
2202,Li5Sn2,3.73086855,-0.3967511166666665,0.0013529,0,0,30.8532730377478,30.592671572954163,28.792969548140785,17.240079060056427,23.016524304098606,157.1722217616333,111.62594379799084,45.54627796364244,2.847231474929164,1.412970332273232,mp-30766,30766
2203,Na2FeO3,1.89950147,-1.633598554683908,3.9999404,2,1,87.10522714335585,85.82797508425331,45.16861709657551,38.50950910790349,41.8390631022395,157.1722217616333,111.62594379799084,45.54627796364244,2.847231474929164,1.412970332273232,mp-760247,760247
2204,Sc3PbC,6.14045836,-0.6774342450000006,0.0001081,0,0,96.96002458460902,96.96002458460902,76.18846910911803,75.77773583390623,75.98310247151213,157.1722217616333,111.62594379799084,45.54627796364244,2.847231474929164,1.412970332273232,mp-21035,21035
2205,Ag2S,2.45874492,-0.19850624715277773,0.0007962,0,0,34.28856988189169,18.06057658800981,9.902350234731864,6.38623969747596,8.144294966103912,157.1722217616333,111.62594379799084,45.54627796364244,2.847231474929164,1.412970332273232,mp-610517,610517
2206,Zr3N2,5.61934498,-1.5298532970000012,2.96e-05,0,0,195.85728726064312,195.85723264397717,115.62330124446093,115.5634214843834,115.59336136442217,157.1722217616333,111.62594379799084,45.54627796364244,2.847231474929164,1.412970332273232,mp-866083,866083
2207,LiTePd2,6.2251998,-0.522179650833333,0.0002091,0,0,95.77047963854118,95.77047963854129,26.66561711918138,10.162807260032707,18.414212189607042,157.1722217616333,111.62594379799084,45.54627796364244,2.847231474929164,1.412970332273232,mp-861733,861733
2208,ZrSbPd,7.37509268,-0.7482462908333337,0.000152925,0,0,129.05019106113664,127.90806196073582,37.66324076848392,34.468956920965454,36.066098844724685,157.1722217616333,111.62594379799084,45.54627796364244,2.847231474929164,1.412970332273232,mp-22036,22036
2209,Cr3Te4,5.77159454,-0.3814662271428578,9.9918622,3,2,33.23736307018051,26.10578213495945,17.732219675065902,14.514074027298804,16.123146851182355,157.1722217616333,111.62594379799084,45.54627796364244,2.847231474929164,1.412970332273232,mp-570122,570122
2210,Li2FeF4,2.46954879,-2.7095447023809527,4.0004301,1,1,70.6220046123075,52.03312483617414,-32.34020476861429,32.56000224048118,0.10989873593344512,157.1722217616333,111.62594379799084,45.54627796364244,2.847231474929164,1.412970332273232,mp-755154,755154
2211,SiO2,0.8539803,-3.2566051611111106,6.926666666666667e-05,0,0,29.16572993929626,28.89692148357505,45.93557488034526,41.5473673921751,43.741471136260174,4.586131743334118,2.1634500966674506,2.422681646666667,1.5564965938500048,0.19375762875657118,mp-7000,7000
2212,Sr(MnAs)2,4.04957317,-0.448182350505747,5.8865028,2,1,54.449727390899774,54.05292369095732,34.194444952935115,28.701210739247383,31.44782784609125,157.1722217616333,111.62594379799084,45.54627796364244,2.847231474929164,1.412970332273232,mp-4343,4343
2213,Cd(CO2)2,0.21256152,-1.567302188571428,1.44e-05,0,0,54.36465248069104,32.83769705307882,28.96166151548391,16.161801030289116,22.56173127288651,157.1722217616333,111.62594379799084,45.54627796364244,2.847231474929164,1.412970332273232,mp-555064,555064
2214,Hf(FeSi)2,8.23599242,-0.6303312564999984,0.9861733,4,2,192.72456689397825,192.69763497788068,97.76159177214164,90.48631192173241,94.12395184693702,157.1722217616333,111.62594379799084,45.54627796364244,2.847231474929164,1.412970332273232,mp-504741,504741
2215,Li2Sb,3.55131342,-0.6301295811111112,0.00048248333333333334,0,0,31.942193885258234,31.88793735779313,26.008379878930747,20.831912967348785,23.420146423139766,157.1722217616333,111.62594379799084,45.54627796364244,2.847231474929164,1.412970332273232,mp-9563,9563
2216,NbNiP,9.10611594,-0.8393726344444445,6.8975e-05,0,0,218.08956555895818,217.47597725091833,99.51485196677477,96.88557718179104,98.20021457428291,157.1722217616333,111.62594379799084,45.54627796364244,2.847231474929164,1.412970332273232,mp-20932,20932
2217,Ti3Sn,7.50057758,-0.29702299750000005,0.0340261,0,0,117.19421084081806,117.07329576365375,10.98603681834973,165.84683739576846,88.4164371070591,157.1722217616333,111.62594379799084,45.54627796364244,2.847231474929164,1.412970332273232,mp-21030,21030
2218,Li2Si2O5,0.73310869,-3.015913218518518,0.00040075,0,0,79.57275525440743,78.03803282142063,50.970239181263665,48.45713538245561,49.713687281859634,5.132930533333325,2.6387007633333286,2.494229769999996,1.5793130690271628,1.1130204629295868,mp-4117,4117
2219,InAu3,6.46423851,-0.12127075624999994,6.69e-05,0,0,109.66505351841307,106.82896476352637,17.59750452221884,15.055928146226272,16.326716334222557,157.1722217616333,111.62594379799084,45.54627796364244,2.847231474929164,1.412970332273232,mp-569683,569683
2220,Pb2Au,6.51740035,-0.08086283666666698,0.00046445,0,0,57.357736451490936,57.091925184675326,12.687653634918952,12.605181415431082,12.646417525175018,157.1722217616333,111.62594379799084,45.54627796364244,2.847231474929164,1.412970332273232,mp-22795,22795
2221,ZrCo2Sn,7.33126801,-0.3947324462500008,2.0004575,2,1,153.30937366197347,153.30937366197347,73.7688855281966,70.40259958003253,72.08574255411457,157.1722217616333,111.62594379799084,45.54627796364244,2.847231474929164,1.412970332273232,mp-22503,22503
2222,FeCuSe2,3.26353396,-0.3696868449218753,3.52076475,3,3,27.74812445584445,27.73880961152374,13.593644635155016,13.469435965153547,13.531540300154282,157.1722217616333,111.62594379799084,45.54627796364244,2.847231474929164,1.412970332273232,mp-505244,505244
2223,ScGeRu,6.77062801,-0.7940437972222227,7.43e-05,0,0,153.9670067102117,150.58941227270333,85.50436335550913,81.46120171010122,83.48278253280517,157.1722217616333,111.62594379799084,45.54627796364244,2.847231474929164,1.412970332273232,mp-9223,9223
2224,TlCu4S3,5.76290748,-0.3982918728385414,0.0130783,0,0,46.02519344777859,45.995706719728986,16.65920717782342,14.508903568856056,15.584055373339737,157.1722217616333,111.62594379799084,45.54627796364244,2.847231474929164,1.412970332273232,mp-8159,8159
2225,Sc2NiRu,5.6966598,-0.5799151762500001,1.42e-05,0,0,124.33619441659266,124.33619441659268,56.9984585204899,56.99803464854491,56.9982465845174,157.1722217616333,111.62594379799084,45.54627796364244,2.847231474929164,1.412970332273232,mp-862367,862367
2226,Li2Mg,1.01513858,-0.019434670555555478,0.00125355,0,0,20.630619876967316,20.532064466235568,6.383679825622477,3.0953214972232885,4.739500661422882,157.1722217616333,111.62594379799084,45.54627796364244,2.847231474929164,1.412970332273232,mp-977207,977207
2227,ZrS3,2.98805215,-1.5754443998437502,2.8e-06,0,0,30.85349881231877,13.497368949513023,19.319024302262537,2.7899447093892165,11.054484505825878,9.903677046666665,3.2062494399999992,6.697427606666667,2.5879388722816983,1.412970332273232,mp-9921,9921
2228,YAlSi,6.31935613,-0.6077029705555544,0.00010365,0,0,88.49570078180552,88.38970260748535,64.06279272900765,61.087703532665024,62.57524813083634,157.1722217616333,111.62594379799084,45.54627796364244,2.847231474929164,1.412970332273232,mp-31080,31080
2229,SrTiO3,3.31488289,-3.551357205,0.0001264,0,0,172.73844260560242,172.7384426056024,109.62042620121653,109.62031341108461,109.62036980615056,157.1722217616333,111.62594379799084,45.54627796364244,2.847231474929164,1.412970332273232,mp-5229,5229
2230,Mn2SiO4,3.61428526,-2.5943011022660096,0.0,8,2,117.81576871230128,114.60727159746536,50.820326110483286,49.18726805736408,50.003797083923686,157.1722217616333,111.62594379799084,45.54627796364244,2.847231474929164,1.412970332273232,mp-18928,18928
2231,Mn5O8,3.21105476,-1.9565608430503982,18.999599,5,3,138.58660614747407,134.22399828746154,59.783418218015115,45.463358412033294,52.6233883150242,16.520822380684127,7.150192134025133,9.370630246658996,3.0611485175762048,1.412970332273232,mp-18922,18922
2232,Bi2Pt,6.00717207,-0.23804009499999998,5.735e-05,0,0,81.52368764747386,81.52368764747386,24.22332503660629,22.33908994078337,23.281207488694832,157.1722217616333,111.62594379799084,45.54627796364244,2.847231474929164,1.412970332273232,mp-22864,22864
2233,LiHgPd2,3.2287356,-0.35435038958333287,0.0004669,0,0,97.08025272551757,97.08025272551747,25.140447330469147,10.30091766535579,17.72068249791247,157.1722217616333,111.62594379799084,45.54627796364244,2.847231474929164,1.412970332273232,mp-862737,862737
2234,Li2FeO3,1.97209009,-1.8779613994444446,2.5e-08,4,2,99.811992869307,97.9054746565842,67.92956258308938,58.87446120051793,63.40201189180365,24.76352093,13.793634849999998,10.96988608,3.3120818347377834,0.464365904540805,mp-774155,774155
2235,LiVF3,2.03102695,-3.0478407111666663,2.99997935,2,1,65.21616548181947,64.84985527195711,29.08073338135781,28.844822412189263,28.962777896773538,6.848850699451241,4.524162281818846,2.3246884176323936,1.524692892891022,1.5096245179617038,mp-752764,752764
2236,ZnSeO4,1.00080753,-1.3072955095572911,9.93e-05,0,0,70.34641769843392,68.11429218575425,25.148405415949657,19.047662295169584,22.09803385555962,11.276307533333332,7.5119425333333325,3.7643649999999997,1.9401971549303951,1.1092135949852036,mp-769365,769365
2237,ZrSO,6.22294815,-2.821740339375001,3.89e-05,0,0,168.20009223187606,168.1999347532911,84.63052029842977,83.91075108516472,84.27063569179725,157.1722217616333,111.62594379799084,45.54627796364244,2.847231474929164,1.412970332273232,mp-8231,8231
2238,KMnF3,0.60533097,-3.0213483561862065,5.00163005,4,1,57.661034354487455,57.441315376907646,24.87025005561914,24.72600594255627,24.798127999087704,157.1722217616333,111.62594379799084,45.54627796364244,2.847231474929164,1.412970332273232,mp-558046,558046
2239,VO2F,-0.52290337,-2.459424774375001,0.00020785,0,0,29.4289995534998,15.497432532258076,39.49500488181657,24.348061170000985,31.92153302590878,32.77027304666667,27.401774149999998,5.368498896666666,2.317002135662949,3.424903920752837,mp-753203,753203
2240,Mo(CO)6,-1.11905981,-0.8681408105769223,1.25e-07,0,0,3.20098295966808,3.1939157345552385,2.5366369804065436,2.3719064126311955,2.4542716965188696,157.1722217616333,111.62594379799084,45.54627796364244,2.847231474929164,1.412970332273232,mp-25082,25082
2241,Li2CdPd,2.26898715,-0.3831672066666667,0.0003835,0,0,52.21414803685348,52.214148036853636,21.286730516322752,4.89375124245171,13.090240879387231,157.1722217616333,111.62594379799084,45.54627796364244,2.847231474929164,1.412970332273232,mp-865582,865582
2242,PtF4,-0.8847514,-1.570294267,1.695e-05,0,0,44.968128059429766,32.269890136840196,20.191689118897663,15.832031424052905,18.011860271475285,5.219581073438563,0.699638906773533,4.51994216666503,2.126015561247149,0.7410583650741563,mp-8943,8943
2243,Te,5.57633478,1.8500000000069388e-05,1.77e-05,0,0,25.095013851271396,18.535986255745726,19.0365138114729,10.744024384954063,14.890269098213482,64.80525917092584,16.512670550925826,48.29258862000001,6.949286914497056,1.7606235861414314,mp-567313,567313
2244,Bi2O3,3.56988044,-1.6192778225000004,2.35e-06,0,0,20.731759681929617,20.73000951800626,24.095552866684816,23.661982529354,23.87876769801941,157.1722217616333,111.62594379799084,45.54627796364244,2.847231474929164,1.412970332273232,mp-23195,23195