,formula_pretty,efermi,formation_energy_per_atom,total_magnetization_normalized_formula_units,num_magnetic_sites,num_unique_magnetic_sites,k_voigt,k_reuss,g_voigt,g_reuss,g_vrh,e_total,e_ionic,e_electronic,n,e_ij_max,material_id,b
546,Sb2Ru,8.27003665,-0.3818082916666666,2.6e-06,0,0,117.23095324711328,113.9661825955648,81.80066744564088,72.56031405239995,77.18049074902041,157.1722217616333,111.62594379799084,45.54627796364244,2.847231474929164,1.412970332273232,mp-20928,20928
547,Rb3CoO2,2.09530438,-1.195625397916667,0.0,4,1,22.985743574328563,22.753447118536762,8.006288541607658,7.697439585222189,7.851864063414924,157.1722217616333,111.62594379799084,45.54627796364244,2.847231474929164,1.412970332273232,mp-30194,30194
548,VI3,1.76286084,-0.662163445,2.00256,2,1,9.336327328526027,2.5241688329984378,4.788512800414945,0.5932242064013702,2.6908685034081574,157.1722217616333,111.62594379799084,45.54627796364244,2.847231474929164,1.412970332273232,mp-865493,865493
549,ZrNiBi,7.29878298,-0.30791826999999944,0.0006907,0,0,104.49208920152081,104.49208920152083,39.500414398315726,36.6103095624911,38.05536198040342,157.1722217616333,111.62594379799084,45.54627796364244,2.847231474929164,1.412970332273232,mp-31452,31452
550,Na3CuO2,2.30893019,-1.3375447491091954,0.00012595,0,0,50.24422910363638,49.34236586172338,28.028575672174806,24.99830329268761,26.51343948243121,157.1722217616333,111.62594379799084,45.54627796364244,2.847231474929164,1.412970332273232,mp-754352,754352
551,Ca2Al2SiO7,2.53497082,-3.4430588020833333,1.055e-05,0,0,103.94456612680467,100.99690257919022,54.919194334716025,50.45690763887499,52.6880509867955,9.872859379999998,6.865634226666665,3.0072251533333323,1.7341352753846317,0.385115,mp-559691,559691
552,ScSiPd2,6.804707,-0.80177548125,0.0009056,0,0,138.62308809202162,138.62308809202156,15.069910879254499,15.016530051424898,15.043220465339697,157.1722217616333,111.62594379799084,45.54627796364244,2.847231474929164,1.412970332273232,mp-862556,862556
553,Hf2Si,6.1941545,-0.7200595366666676,3.875e-05,0,0,141.07192173411272,141.07132516872358,100.62531322935652,98.7254290863767,99.6753711578666,157.1722217616333,111.62594379799084,45.54627796364244,2.847231474929164,1.412970332273232,mp-9938,9938
554,CoAs2,6.28072553,-0.32578981500000026,1.15e-06,0,0,133.43089395381347,130.15535797494252,95.14486381350723,82.85211232140705,88.99848806745715,47.588969966666674,13.019914886666667,34.569055080000005,5.879545482433145,1.412970332273232,mp-2715,2715
555,Co(AsO3)2,3.57067867,-1.6258190033333335,0.0,2,1,153.6369020317602,133.20849211688423,77.7582405414616,67.79010934052224,72.77417494099191,11.962179573334033,7.511869003334034,4.450310569999999,2.1095759218383203,1.412970332273232,mp-19292,19292
556,ZnTe,2.85423966,-0.6841570300000002,0.0,0,0,45.982043664493325,45.982043664493325,23.67811331492497,21.185435748545213,22.431774531735094,11.975580520000014,2.9583458200000003,9.01723470000001,3.002871076153622,0.11930999999999999,mp-2176,2176
557,SrTiN2,3.88282441,-1.5423174349999993,1e-07,0,0,123.18116426737632,119.5186217935222,62.23451572615923,38.336791370588315,50.28565354837377,30.200322269999997,21.463289779999997,8.737032490000002,2.955847169594531,1.412970332273232,mp-9517,9517
558,YSbPd2,6.47632981,-0.8586732466666662,7.24e-05,0,0,104.56917007948813,104.56917007948813,16.05418583082002,-36.18659196623441,-10.066203067707194,157.1722217616333,111.62594379799084,45.54627796364244,2.847231474929164,1.412970332273232,mp-865513,865513
559,NbB,7.03086902,-0.7693451645833331,8.9e-06,0,0,263.9628132592149,263.67902061561057,199.06562255829547,195.90784238142473,197.4867324698601,157.1722217616333,111.62594379799084,45.54627796364244,2.847231474929164,1.412970332273232,mp-2580,2580
560,YMgPd,4.04246859,-0.6957296588888889,0.026085133333333333,0,0,70.19600064473914,70.16587453524073,21.224821382205285,19.496184643654512,20.360503012929897,157.1722217616333,111.62594379799084,45.54627796364244,2.847231474929164,1.412970332273232,mp-12696,12696
561,NiTe,9.29685001,-0.3991964474999996,0.00087925,0,0,100.67324454184602,100.43661205725769,34.44725323762509,33.4560540398574,33.95165363874125,157.1722217616333,111.62594379799084,45.54627796364244,2.847231474929164,1.412970332273232,mp-203,203
562,TiCu3O4,3.12269833,-1.7098972279166667,0.0022286,0,0,104.50596683176182,47.694898943200556,32.426200517715614,15.65870058229555,24.042450550005583,157.1722217616333,111.62594379799084,45.54627796364244,2.847231474929164,1.412970332273232,mp-675755,675755
563,Li3N,0.3339454,-0.45679072875000015,9.4e-05,0,0,51.742830873206444,51.723291598386695,39.25267344525629,29.12319722358588,34.187935334421084,10.693276079994908,4.691657119995036,6.00161895999987,2.449820189319998,1.412970332273232,mp-2251,2251
564,Na2FeO3,1.27114044,-1.637298645517242,3.9998736,2,1,56.22807497553951,49.02858199034728,38.78444503794352,33.74587195860899,36.26515849827625,12.1339495,6.96478277,5.16916673,2.273580156933113,0.8058989816321133,mp-764074,764074
565,MgGa2,3.88385308,-0.12463401333333331,0.00036945,0,0,51.15752124493622,49.06793023431827,16.459370898565986,2.234281992491981,9.346826445528983,157.1722217616333,111.62594379799084,45.54627796364244,2.847231474929164,1.412970332273232,mp-30651,30651
566,CaAu2,3.8198333,-0.709974323333333,0.00135345,0,0,70.93901483709449,62.18284216484359,16.90903195872641,11.55309580514407,14.231063881935238,157.1722217616333,111.62594379799084,45.54627796364244,2.847231474929164,1.412970332273232,mp-443,443
567,Co3W,6.61041322,-0.04772274375000052,0.8380931,4,2,271.54963458594494,271.549634585945,155.48238474858584,142.10881156962074,148.7955981591033,157.1722217616333,111.62594379799084,45.54627796364244,2.847231474929164,1.412970332273232,mp-1008274,1008274
568,SrNiO3,2.92452991,-1.764556810333334,0.00865035,4,4,112.91391544437771,112.91391544374925,56.20087294848924,52.054653362064315,54.12776315527678,157.1722217616333,111.62594379799084,45.54627796364244,2.847231474929164,1.412970332273232,mp-762506,762506
569,Na4FeO5,0.55648252,-1.4398116138706905,0.03544495,12,6,47.46144348164441,41.55788426334853,28.786224551644814,20.441312962108526,24.61376875687667,157.1722217616333,111.62594379799084,45.54627796364244,2.847231474929164,1.412970332273232,mp-759165,759165
570,Si3N4,9.18194215,-1.1524548592857147,0.0,0,0,293.21249096091833,293.21249096091833,262.2997182728296,235.45856253162674,248.87914040222816,157.1722217616333,111.62594379799084,45.54627796364244,2.847231474929164,1.412970332273232,mp-2075,2075
571,AlPd,7.02512488,-0.9140214899999997,0.0045465,0,0,147.90725971616175,147.90725971616175,65.25011054958838,65.0489372367148,65.1495238931516,157.1722217616333,111.62594379799084,45.54627796364244,2.847231474929164,1.412970332273232,mp-7189,7189
572,Sr(CdP)2,3.1450881,-0.588413768666667,0.000202,0,0,53.65006846736143,53.132192294668805,34.24635189477528,33.83584387002364,34.041097882399455,22.42992027666483,10.399015989998167,12.030904286666667,3.468559396444966,1.412970332273232,mp-8277,8277
573,BPt,8.10329953,0.07009157041666736,0.0013541,0,0,261.9383061199011,261.50144228355964,47.604397988169616,45.94173516058333,46.77306657437647,157.1722217616333,111.62594379799084,45.54627796364244,2.847231474929164,1.412970332273232,mp-2192,2192
574,V2Zn2O7,0.59906222,-2.1396660131818184,0.0004536,0,0,116.98865476418109,105.02876684635243,28.942694910832277,14.102558964903578,21.522626937867926,157.1722217616333,111.62594379799084,45.54627796364244,2.847231474929164,1.412970332273232,mp-634381,634381
575,MgCuSn,6.24679532,-0.1774837583333332,0.0001015,0,0,63.15198637468776,63.151986374687766,30.239246180089516,29.396709031562338,29.817977605825927,157.1722217616333,111.62594379799084,45.54627796364244,2.847231474929164,1.412970332273232,mp-11361,11361
576,CaSiPt,5.78113621,-0.9355518283333323,0.000391675,0,0,63.48363411922768,56.531325792066596,36.06604269814155,31.602368265074986,33.834205481608265,157.1722217616333,111.62594379799084,45.54627796364244,2.847231474929164,1.412970332273232,mp-8982,8982
577,AsPd5,4.74110672,-0.2700204958333323,0.00149465,0,0,151.58652609397708,150.7915090992477,46.07435236627329,41.732284059600495,43.903318212936895,157.1722217616333,111.62594379799084,45.54627796364244,2.847231474929164,1.412970332273232,mp-2512,2512
578,Zn(InS2)2,4.01408736,-0.8459846989285715,0.0001389,0,0,38.313879185244005,25.627427679495238,19.28434961365656,13.209846735586291,16.247098174621424,25.123473393313034,5.32968971331303,19.79378368,4.449020530408912,1.2244511640731144,mp-541937,541937
579,LiIn2Pt,8.36803623,-0.4944937633333333,0.0012656,0,0,78.03996103132184,78.03996103127928,34.34592963332146,19.070352319425286,26.70814097637337,157.1722217616333,111.62594379799084,45.54627796364244,2.847231474929164,1.412970332273232,mp-20265,20265
580,Fe2CuO4,3.48319122,-1.407235007857142,8.9987829,6,2,159.13002257489785,159.13002257486153,52.61083408809581,41.84795397829952,47.229394033197664,157.1722217616333,111.62594379799084,45.54627796364244,2.847231474929164,1.412970332273232,mp-770107,770107
581,LiSiNi2,8.17937719,-0.48951581083333284,0.010803,0,0,148.84968034779553,148.8496803477955,69.19388094413203,17.38425171554839,43.28906632984021,157.1722217616333,111.62594379799084,45.54627796364244,2.847231474929164,1.412970332273232,mp-10181,10181
582,Fe3Pd,4.98749213,0.06741327499999983,8.3970893,4,2,165.01347162570022,165.0134716257002,42.496592739135124,6.938312626227881,24.717452682681504,157.1722217616333,111.62594379799084,45.54627796364244,2.847231474929164,1.412970332273232,mp-30635,30635
583,Mn(AsO2)2,2.16162293,-1.7612132268472902,3e-06,4,4,48.72187373585757,47.614089516395666,25.15822177477337,13.397651236190976,19.277936505482174,157.1722217616333,111.62594379799084,45.54627796364244,2.847231474929164,1.412970332273232,mp-752598,752598
584,Ca(CoO2)2,4.24292736,-1.8857562796428573,9.1575e-05,0,0,165.27741179578402,164.9095984818054,77.20786243702722,70.50854682708882,73.85820463205802,157.1722217616333,111.62594379799084,45.54627796364244,2.847231474929164,1.412970332273232,mp-17544,17544
585,NaFeAs,4.0207649,-0.2786807238505749,0.0693226,2,1,53.664353347612504,46.61672216950909,34.69604219648997,30.18402243390116,32.440032315195566,157.1722217616333,111.62594379799084,45.54627796364244,2.847231474929164,1.412970332273232,mp-22152,22152
586,LiCuO2,1.48402383,-1.425870712083333,8.18e-05,0,0,78.28998990652082,3.5677692690916083,29.09461974419384,2.9971175150343172,16.045868629614077,13.197508523333331,6.716180199999999,6.481328323333334,2.545845306245714,1.4988862371748295,mp-773044,773044
587,BeI2,0.45762777,-0.8296143583333336,0.00039505,0,0,3.7338727114527948,0.8047711904819225,2.0023042423598945,0.5308209719072343,1.2665626071335643,3.9703118267586,0.7775935867594193,3.1927182399991807,1.7868179090212803,1.412970332273232,mp-570886,570886
588,VOF2,-0.48481917,-2.83068655625,8.5e-07,2,2,43.73936931355328,26.795843559951443,58.80406803353207,33.10708896799574,45.955578500763906,157.1722217616333,111.62594379799084,45.54627796364244,2.847231474929164,1.412970332273232,mp-759163,759163
589,AgSbTe2,5.55331159,-0.2538966766666668,0.0002757,0,0,52.35719227802411,52.26181331662093,22.481008739621643,15.421256703146744,18.951132721384194,157.1722217616333,111.62594379799084,45.54627796364244,2.847231474929164,1.412970332273232,mp-12359,12359
590,Ti2InC,7.7277596,-0.668792704166667,0.0023965,0,0,127.3915249341179,126.38513100347627,96.92363605044466,95.34768637222106,96.13566121133286,157.1722217616333,111.62594379799084,45.54627796364244,2.847231474929164,1.412970332273232,mp-20315,20315
591,Ga2Au,4.07308007,-0.23811289833333285,0.000866,0,0,73.48385043261665,73.48385043261666,16.198478364647194,8.63102793748198,12.414753151064588,157.1722217616333,111.62594379799084,45.54627796364244,2.847231474929164,1.412970332273232,mp-2776,2776
592,Li3FeF6,-2.42812983,-2.8968719144999997,4.9999546,1,1,55.60388914311131,51.33873591052886,35.3777068428568,28.942542220210573,32.16012453153369,157.1722217616333,111.62594379799084,45.54627796364244,2.847231474929164,1.412970332273232,mp-755087,755087
593,NaBeAs,2.4260289,-0.38975037051724176,8.6e-06,0,0,51.83854383412544,38.973826626434395,39.07154584666321,27.45800084204274,33.264773344352975,12.611182030000355,4.382274770000354,8.22890726,2.8686071986244475,1.412970332273232,mp-9573,9573
594,ZnTe,4.79307776,-0.39561343000000004,1.3e-06,0,0,55.418955182946576,55.41895518294658,14.871534127377625,14.785115519717234,14.82832482354743,157.1722217616333,111.62594379799084,45.54627796364244,2.847231474929164,1.412970332273232,mp-948,948
595,Li2VF4,1.82452053,-3.0028438852380956,3.0000123,1,1,42.17025170143427,40.6941023541955,22.994599463686214,18.90675976076009,20.95067961222315,157.1722217616333,111.62594379799084,45.54627796364244,2.847231474929164,1.412970332273232,mp-759858,759858
596,V3Au,6.21649998,0.0646376824999999,0.8906574,3,1,180.2771042988386,180.27710429883854,53.71889307062238,27.40410356085639,40.561498315739385,157.1722217616333,111.62594379799084,45.54627796364244,2.847231474929164,1.412970332273232,mp-570698,570698
597,Sc2ZnAu,4.6313885,-0.5990193574999996,0.0081191,0,0,90.35593831652457,90.35593831652463,44.635091530863626,39.80801245268683,42.22155199177523,157.1722217616333,111.62594379799084,45.54627796364244,2.847231474929164,1.412970332273232,mp-862257,862257
598,Pt3O4,3.98054978,-0.8268794257142856,0.0001539,0,0,212.890434751444,212.89043475144396,59.12825753560026,57.234738722264765,58.18149812893252,157.1722217616333,111.62594379799084,45.54627796364244,2.847231474929164,1.412970332273232,mp-1604,1604
599,VRu,7.87583904,-0.23370608250000124,0.647887,2,2,252.4641130736401,252.46347739740042,79.1092846596869,72.78853191370781,75.94890828669736,157.1722217616333,111.62594379799084,45.54627796364244,2.847231474929164,1.412970332273232,mp-1395,1395
600,Mn3Sn,6.93193286,0.17500912780172406,8.9749763,6,1,90.03187359046989,88.70187349625276,55.66932643341727,53.476865776680796,54.57309610504903,157.1722217616333,111.62594379799084,45.54627796364244,2.847231474929164,1.412970332273232,mp-22389,22389
601,TiSb2,8.91660244,-0.5189937427777783,1.675e-05,0,0,89.40941706647928,88.29202359340279,55.08237829134266,52.548867540865686,53.815622916104175,157.1722217616333,111.62594379799084,45.54627796364244,2.847231474929164,1.412970332273232,mp-568,568
602,Be17Nb2,4.86966101,-0.19779963921052668,6.06e-05,0,0,139.85833530618973,139.85570279371245,152.68701246559536,151.12826990244002,151.90764118401768,157.1722217616333,111.62594379799084,45.54627796364244,2.847231474929164,1.412970332273232,mp-30441,30441
603,GaCuTe2,4.43099855,-0.49546836437499975,3.79e-05,0,0,47.692303842046556,47.664676196267166,25.965480300741213,22.856459487436293,24.41096989408875,40.619359700009305,2.240237060009294,38.37912264000001,6.195088590165601,0.35400522670527107,mp-3839,3839
604,Ca5Sb3,4.82758874,-1.05762844875,0.8914202,0,0,38.13056687889677,34.83466639945218,26.454887926350512,24.876056190730825,25.66547205854067,157.1722217616333,111.62594379799084,45.54627796364244,2.847231474929164,1.412970332273232,mp-12467,12467
605,Si3Mo5,9.71255204,-0.3739594918750022,0.0066605,0,0,241.71303324111918,240.7927433637528,120.7113589910708,118.78700567245184,119.74918233176132,157.1722217616333,111.62594379799084,45.54627796364244,2.847231474929164,1.412970332273232,mp-1332,1332
606,CaVO3,4.2451289,-2.9286859330000015,0.9995339,4,2,167.37766772792494,166.84518723291606,86.42408918465593,84.77276365601128,85.5984264203336,157.1722217616333,111.62594379799084,45.54627796364244,2.847231474929164,1.412970332273232,mp-1435359,1435359
607,Y2Si4Mo3,7.65666611,-0.6423530798148138,0.00379085,0,0,156.12706332766084,156.0783252341631,99.28867679078029,97.64975770610732,98.46921724844381,157.1722217616333,111.62594379799084,45.54627796364244,2.847231474929164,1.412970332273232,mp-2932,2932
608,Ti2Ga,5.46488784,-0.40278368138888965,0.10597335,0,0,121.13766900928175,120.55996881105555,63.90495633561014,61.55144100252253,62.72819866906633,157.1722217616333,111.62594379799084,45.54627796364244,2.847231474929164,1.412970332273232,mp-30671,30671
609,V5Si3,8.02343285,-0.5567650843750016,0.00130135,0,0,194.14681125356782,193.37174929445536,121.87951600922389,117.94600871499375,119.91276236210882,157.1722217616333,111.62594379799084,45.54627796364244,2.847231474929164,1.412970332273232,mp-568671,568671
610,YSnPt,6.87645086,-1.0727544147222225,6.0575e-05,0,0,109.95678036712734,106.85664971843556,42.44290942751386,39.652599154117894,41.047754290815874,157.1722217616333,111.62594379799084,45.54627796364244,2.847231474929164,1.412970332273232,mp-22275,22275
611,Mn2VGa,6.23773384,-0.2303999808405175,1.9945976,3,2,186.65258115246476,186.65258115246482,91.08483820197868,74.01574871690696,82.55029345944283,157.1722217616333,111.62594379799084,45.54627796364244,2.847231474929164,1.412970332273232,mp-21235,21235
612,TmI3,-0.67603084,-1.6215998391666666,0.00377705,0,0,5.7306096141859255,0.4903340348806609,3.5530417958322063,0.39856085591432644,1.9758013258732663,157.1722217616333,111.62594379799084,45.54627796364244,2.847231474929164,1.412970332273232,mp-865353,865353
613,NaVS2,4.68526528,-1.2666850332004316,2.0009229,1,1,60.25950846033751,59.87650129099703,12.61280762615553,-513.434233621052,-250.41071299744826,157.1722217616333,111.62594379799084,45.54627796364244,2.847231474929164,1.412970332273232,mp-10224,10224
614,Mg(BC)2,4.83258861,-0.14715701116666652,7.03e-05,0,0,178.5397514692096,137.41813793658935,139.44081057984712,68.14384023972418,103.79232540978566,157.1722217616333,111.62594379799084,45.54627796364244,2.847231474929164,1.412970332273232,mp-3582,3582
615,MgSc,3.42404925,-0.04004057249999926,0.0519146,0,0,48.41873621914223,48.41873621914225,34.83724056423557,19.769585806156723,27.30341318519615,157.1722217616333,111.62594379799084,45.54627796364244,2.847231474929164,1.412970332273232,mp-1174,1174
616,Te4Mo3,6.01549242,-0.49409426571428533,0.00052515,0,0,33.00849199486629,32.9488988275466,21.568356029315478,7.354727478162848,14.461541753739162,157.1722217616333,111.62594379799084,45.54627796364244,2.847231474929164,1.412970332273232,mp-8601,8601
617,Cu2Se,4.214682274123909,-0.13521404078124988,5.78e-05,0,0,86.12426525951344,86.12426525951365,11.108841925473435,4.053823443675099,7.581332684574267,157.1722217616333,111.62594379799084,45.54627796364244,2.847231474929164,1.412970332273232,mp-16366,16366
618,PF5,-3.88758403,-2.9220839843055564,0.0,0,0,6.256690959522939,6.243658017892585,3.2305229322021036,3.0063527461515025,3.118437839176803,2.145893996680868,0.4446545133475344,1.7012394833333335,1.3043157145926494,1.412970332273232,mp-8511,8511
619,TlAgO2,2.48848941,-0.8218405749999995,0.0092025,0,0,93.53395361653689,83.0160335015495,24.216801118008117,13.677570399322104,18.94718575866511,157.1722217616333,111.62594379799084,45.54627796364244,2.847231474929164,1.412970332273232,mp-997010,997010
620,CdTe,1.77816521,-0.6692981199999997,0.0016615,0,0,35.30863798788645,35.30863798788644,14.549712435065965,12.545389254971397,13.54755084501868,12.820171336666663,3.5108798066666655,9.309291529999998,3.051113162437604,0.008396666666666719,mp-406,406
621,HfGa3,4.95466008,-0.3850672606250001,0.0005632,0,0,102.54531366149975,102.07795338178774,74.3510292790857,67.12190686101485,70.73646807005028,157.1722217616333,111.62594379799084,45.54627796364244,2.847231474929164,1.412970332273232,mp-11387,11387
622,Sr4CN4,2.74135067,-0.8455316621296297,0.000859225,0,0,53.1941746150429,49.67260240927659,23.791948024356998,21.463652981052043,22.62780050270452,18.093620753333333,12.754357313333331,5.33926344,2.3106846258198024,1.412970332273232,mp-567601,567601
623,Tl2Ni3S2,6.93473521,-0.42139545184523747,0.0002177,0,0,54.486032222739695,53.36412902887193,22.689305990500657,20.949566246119645,21.81943611831015,157.1722217616333,111.62594379799084,45.54627796364244,2.847231474929164,1.412970332273232,mp-554212,554212