,formula_pretty,efermi,formation_energy_per_atom,total_magnetization_normalized_formula_units,num_magnetic_sites,num_unique_magnetic_sites,k_voigt,k_reuss,g_voigt,g_reuss,g_vrh,e_total,e_ionic,e_electronic,n,e_ij_max,material_id,b
1705,ScAlCu2,6.37042392,-0.41294278624999947,7.56e-05,0,0,107.84981115560127,107.8498111556013,49.53959373928072,39.73943126908667,44.6395125041837,157.1722217616333,111.62594379799084,45.54627796364244,2.847231474929164,1.412970332273232,mp-16497,16497
1706,ZrAg,4.36604011,-0.12130619833333345,6.615e-05,0,0,105.85076647586105,105.8436394936078,51.251161188759774,42.26863856643882,46.759899877599295,157.1722217616333,111.62594379799084,45.54627796364244,2.847231474929164,1.412970332273232,mp-11239,11239
1707,HfBeSi,6.91301545,-0.6309166883333326,7e-07,0,0,148.2924326613341,146.98048076298954,119.13667635208608,116.39019733086386,117.76343684147497,157.1722217616333,111.62594379799084,45.54627796364244,2.847231474929164,1.412970332273232,mp-12571,12571
1708,P,5.8983731,0.037400559166666625,6.0975e-05,0,0,32.63206347305136,9.12930801635311,23.400938588512872,3.5974151033996145,13.499176845956244,157.1722217616333,111.62594379799084,45.54627796364244,2.847231474929164,1.412970332273232,mp-157,157
1709,Ca3GaN3,2.78562589,-0.9432459117857144,0.000447,0,0,79.86610271208926,79.86601709103981,51.54321264687907,51.409035816981785,51.47612423193043,15.108383393334238,8.523877466667573,6.584505926666668,2.5660292139152796,1.412970332273232,mp-1029943,1029943
1710,PtO2,4.60796705,-0.9266780216666662,0.00012365,0,0,204.54545974650048,199.33723942572604,98.27014584835554,75.28415619918935,86.77715102377245,22.437242233333333,1.10217642,21.335065813333333,4.618989696170942,1.412970332273232,mp-1285,1285
1711,Ca4HfN4,2.81732198,-1.3247343322222223,0.00010125,0,0,88.97600574845404,87.81527417161696,44.31083109666377,39.28357563589614,41.79720336627996,14.932815776666667,9.007974103333334,5.924841673333334,2.4340997665119097,1.412970332273232,mp-1029730,1029730
1712,RbGe2N3,4.50688164,-0.2160528095833326,1.9e-06,0,0,129.29074893419033,127.99058917580898,86.93899080738193,79.85251601993455,83.39575341365824,11.943971476666666,6.132889563333333,5.811081913333333,2.410618574833715,0.496730535703212,mp-1029403,1029403
1713,Mn3AgN,5.08291914,-0.1429203630919531,9.9350627,3,1,140.8430183728249,140.84301837282487,77.69919280168456,77.69681006313452,77.69800143240954,157.1722217616333,111.62594379799084,45.54627796364244,2.847231474929164,1.412970332273232,mp-10666,10666
1714,HfSiPt,8.00302917,-1.1031983116666666,4.775e-05,0,0,192.50622447016278,191.78479891227576,102.02207407400292,99.84067272467944,100.93137339934117,157.1722217616333,111.62594379799084,45.54627796364244,2.847231474929164,1.412970332273232,mp-10456,10456
1715,YAl3,6.05243992,-0.42492154916666625,0.0001048,0,0,76.31744647523323,76.31744647523323,62.63798595789883,62.63270563769511,62.63534579779697,157.1722217616333,111.62594379799084,45.54627796364244,2.847231474929164,1.412970332273232,mp-11231,11231
1716,Ti(WO4)2,-0.56964777,-2.391802685757576,0.000353,0,0,41.32947474856295,11.1987705495397,30.579334479340233,11.514140776086762,21.046737627713497,22.493938080000003,18.12746973666667,4.366468343333334,2.0896096150557244,1.412970332273232,mp-1041750,1041750
1717,ZrS2,1.90079098,-1.84893887875,0.0015906,0,0,30.50902177432188,4.24658330177733,23.12219156482502,1.843604414996385,12.482897989910702,35.90011770284961,27.854393852851036,8.045723849998582,2.8364985193013204,1.412970332273232,mp-1186,1186
1718,K2GeF6,-2.73418781,-3.0375324373333337,0.00054085,0,0,23.18600579219756,23.035976685094088,11.238938675688994,11.137977736010292,11.188458205849642,7.602242806732542,5.615510173399208,1.986732633333333,1.4095150348021594,0.26179837127072136,mp-14168,14168
1719,VS2,4.57613559,-1.1831222987499999,0.6284424,1,1,33.05792773232307,0.21968084066587462,27.928671615518837,0.5433304793004415,14.236001047409639,157.1722217616333,111.62594379799084,45.54627796364244,2.847231474929164,1.412970332273232,mp-1013526,1013526
1720,RbCeSe2,3.91509633,-1.9212834917968742,1.0000002,1,1,30.57611145399782,30.514360025730575,19.61430695586333,17.681471523945437,18.647889239904384,157.1722217616333,111.62594379799084,45.54627796364244,2.847231474929164,1.412970332273232,mp-10777,10777
1721,MgFe2O5,1.71026469,-1.6295176112500007,8.00105935,8,14,84.4364800140001,82.39477017796166,32.85286607841951,614.4813375910657,323.6671018347426,157.1722217616333,111.62594379799084,45.54627796364244,2.847231474929164,1.412970332273232,mp-1393223,1393223
1722,CaSn3,7.12837245,-0.40681982125000005,0.0015699,0,0,43.35358960588354,43.35358960588355,26.236453895002033,25.872347224132287,26.05440055956716,157.1722217616333,111.62594379799084,45.54627796364244,2.847231474929164,1.412970332273232,mp-11290,11290
1723,MgZrN2,3.92719403,-1.4844462125000009,0.000403925,0,0,150.69438721566394,148.03198474989253,80.03403405531553,57.39165122867014,68.71284264199284,24.668367126666666,17.68669149,6.981675636666666,2.6422860626106828,1.412970332273232,mp-1029536,1029536
1724,Ca(Al2Cu)4,7.53122554,-0.2665357153846158,0.0025529,0,0,92.86051390815948,92.86050595519875,63.042987133561276,62.75221366468588,62.897600399123576,157.1722217616333,111.62594379799084,45.54627796364244,2.847231474929164,1.412970332273232,mp-10877,10877
1725,TiCoSi,7.66039739,-0.7633952916666679,0.10693866666666667,3,1,185.50298360066557,185.46677229077042,103.75488868466577,100.31969439111671,102.03729153789124,157.1722217616333,111.62594379799084,45.54627796364244,2.847231474929164,1.412970332273232,mp-15657,15657
1726,K3BN2,1.08448414,-0.5440325859444446,0.000601625,0,0,29.58838179683857,29.557768239481952,12.124136811908654,11.10454997222906,11.614343392068857,11.349258646666668,8.157123086666667,3.192135559999999,1.786654851950986,1.412970332273232,mp-1029756,1029756
1727,AlPt,9.81968853,-0.9318046300000002,0.0004231,0,0,185.40221085602815,185.40221085602755,49.419103312057814,15.300926334808793,32.3600148234333,157.1722217616333,111.62594379799084,45.54627796364244,2.847231474929164,1.412970332273232,mp-10903,10903
1728,HfSiRh,7.24150803,-1.0681136775000002,0.0001242,0,0,189.857757227741,189.56472509065347,98.91528917000008,95.62775559895576,97.27152238447792,157.1722217616333,111.62594379799084,45.54627796364244,2.847231474929164,1.412970332273232,mp-13472,13472
1729,TiS2,7.77750763,-1.1639776565277782,0.0102419,0,0,94.34756573954287,26.02025268249397,47.20219402182769,15.526631582941452,31.36441280238457,157.1722217616333,111.62594379799084,45.54627796364244,2.847231474929164,1.412970332273232,mp-1008682,1008682
1730,Mn2AlV,7.08921185,-0.31761138646551856,1.9998587,3,2,184.52148562181597,184.52148562181594,101.70549481209623,93.95281006704347,97.82915243956985,157.1722217616333,111.62594379799084,45.54627796364244,2.847231474929164,1.412970332273232,mp-10895,10895
1731,GaPt3,6.95003948,-0.43107699937499966,0.0002523,0,0,216.6240531966596,216.62405319665956,80.2066138318306,77.51489229768248,78.86075306475654,157.1722217616333,111.62594379799084,45.54627796364244,2.847231474929164,1.412970332273232,mp-11407,11407
1732,BaNiO3,2.61248787,-1.8199423979999998,0.01580325,0,0,85.22952185164478,85.12128995310191,37.991639748961546,9.70796021013638,23.849799979548962,203.57420196004782,197.72692058338112,5.847281376666667,2.4181152529742387,17.82595858649129,mp-19241,19241
1733,BaSnO3,4.12362011,-2.587468666000001,0.0004768,0,0,133.95954237520775,133.95954237520777,89.76501657261397,89.69848321945554,89.73174989603476,22.509662689999995,17.04200534,5.467657349999997,2.338302236666594,1.412970332273232,mp-3163,3163
1734,Hf3Al2,5.42897207,-0.3305631345000009,0.078408525,0,0,115.00438327448602,114.97901669166266,66.60529726700284,60.98511090063107,63.795204083816955,157.1722217616333,111.62594379799084,45.54627796364244,2.847231474929164,1.412970332273232,mp-8462,8462
1735,LiCuS2,3.60398342,-0.7716936736458333,0.0020953,0,0,48.484516439242334,40.15443555938111,21.39474955115096,18.839660204976234,20.117204878063596,157.1722217616333,111.62594379799084,45.54627796364244,2.847231474929164,1.412970332273232,mp-766486,766486
1736,BaCuO2,2.6967041,-1.877893153125,0.76171705,4,2,80.39374452080114,77.43860994744338,30.10888198641421,20.972825601657302,25.540853794035755,157.1722217616333,111.62594379799084,45.54627796364244,2.847231474929164,1.412970332273232,mp-754008,754008
1737,WO3,0.57636089,-2.180198060625001,0.000130125,0,0,48.743544358463204,48.74354435846321,96.95523136824019,85.33865033335664,91.14694085079842,15.725570531268517,8.277308290329819,7.4482622409387,2.729150461396128,1.412970332273232,mp-756478,756478
1738,Ag2HgI4,0.97060761,-0.5145419697619048,0.0007451,0,0,14.027024505869393,14.022851756205954,6.1343007986607905,4.971240241568242,5.552770520114516,9.07228687,3.7055749166666665,5.366711953333334,2.3166164881855895,0.20270999999999997,mp-570256,570256
1739,Sc2PdPt,5.51398256,-1.0894152850000003,0.0001167,0,0,126.12838463479768,126.12838463479771,42.09054576139183,40.30061978966263,41.19558277552723,157.1722217616333,111.62594379799084,45.54627796364244,2.847231474929164,1.412970332273232,mp-862363,862363
1740,MoPt2,8.29270599,-0.3566023133333343,0.0013822,0,0,271.7054832216075,271.3576409426375,142.62841210358047,130.8403378874622,136.73437499552134,157.1722217616333,111.62594379799084,45.54627796364244,2.847231474929164,1.412970332273232,mp-952,952
1741,Al3V,8.06089505,-0.2881342775000002,2.5e-06,0,0,120.05685830713615,120.0312648026187,102.4845614732514,97.67161462444282,100.07808804884712,157.1722217616333,111.62594379799084,45.54627796364244,2.847231474929164,1.412970332273232,mp-2554,2554
1742,LiMnO2,3.14842947,-2.108084236566093,3.99999945,4,3,120.76848813971287,118.29734228987877,68.10609513243814,48.831280184419285,58.46868765842871,157.1722217616333,111.62594379799084,45.54627796364244,2.847231474929164,1.412970332273232,mp-756516,756516
1743,Co2NiO6,1.00103113,-0.9436955861111108,0.00120085,4,2,77.85263887223982,13.352322163635774,48.078800145765385,2.5015034968435623,25.290151821304473,157.1722217616333,111.62594379799084,45.54627796364244,2.847231474929164,1.412970332273232,mp-753469,753469
1744,CuAgTe2,5.30620396,-0.21332855416666696,3.1e-06,0,0,22.725980294969215,9.386566759691469,13.129539637442882,4.753403169237925,8.941471403340403,157.1722217616333,111.62594379799084,45.54627796364244,2.847231474929164,1.412970332273232,mp-2977,2977
1745,V2O5,-1.92552731,-2.2776787421428577,0.00020395,0,0,56.09313287061941,6.615367595964501,24.028051362052327,-59.96002553721512,-17.965987087581397,157.1722217616333,111.62594379799084,45.54627796364244,2.847231474929164,1.412970332273232,mp-25233,25233
1746,Ti5Si3,7.39430384,-0.7434078789583332,0.01930175,0,0,139.77590703457665,138.14418684074553,95.15306160930213,93.57136568822408,94.3622136487631,157.1722217616333,111.62594379799084,45.54627796364244,2.847231474929164,1.412970332273232,mp-2108,2108
1747,AlSb,4.4349805,-0.2554967800000001,0.0003228,0,0,49.20318080636926,49.20318080636927,30.561580208612213,28.595925192835384,29.578752700723797,13.325643436666676,1.3157438466666653,12.009899590000012,3.4655302033022326,0.09824333333333339,mp-2624,2624
1748,MnNi3O4,6.28082795,-1.3615720372413795,10.9998848,4,3,171.7828328015798,171.77179375204452,87.43171548807544,87.33697961682658,87.384347552451,157.1722217616333,111.62594379799084,45.54627796364244,2.847231474929164,1.412970332273232,mp-759859,759859
1749,SiO2,7.84102358,-3.071121566666666,0.0,0,0,280.1840160500269,263.2564834841761,213.73008435478818,193.25550913629422,203.4927967455412,157.1722217616333,111.62594379799084,45.54627796364244,2.847231474929164,1.412970332273232,mp-6947,6947
1750,Zr(CuP)2,7.1898124,-0.6591138693333335,9.27e-05,0,0,128.6791372255144,128.5897151001775,64.03595359992242,57.72928643895938,60.8826200194409,157.1722217616333,111.62594379799084,45.54627796364244,2.847231474929164,1.412970332273232,mp-8219,8219
1751,AlPd,9.00642493,-0.8754367199999997,0.0013114,0,0,156.42338814829475,156.42338814829466,58.52750282084571,45.579573273026796,52.053538046936254,157.1722217616333,111.62594379799084,45.54627796364244,2.847231474929164,1.412970332273232,mp-829,829
1752,B8O,5.099314,-0.6003470850000004,5.866666666666667e-06,0,0,204.89694895877636,204.60540736059914,182.62964064587803,177.3919560934917,180.01079836968486,157.1722217616333,111.62594379799084,45.54627796364244,2.847231474929164,1.412970332273232,mp-758933,758933
1753,CaO2,2.8285686,-2.2065522466666674,3.3e-06,0,0,81.28387765343842,40.577305248440226,40.95225661087409,18.739946801200112,29.8461017060371,19.627529503333335,16.246358543333333,3.381170960000001,1.8387960626453388,1.412970332273232,mp-634859,634859
1754,Rb3CuO2,1.53190475,-1.2378377595833332,7.79e-05,0,0,24.40591892384429,24.30720115201383,9.73012465999357,8.720385611700745,9.225255135847156,157.1722217616333,111.62594379799084,45.54627796364244,2.847231474929164,1.412970332273232,mp-28568,28568
1755,Ca5(CoN2)2,3.39467099,-0.8136470429545458,3.9992209,8,1,66.31275112274159,64.31788973781296,34.319887505186294,33.54497549532492,33.9324315002556,20.23254877333333,10.173566919999997,10.058981853333334,3.1715897990334962,1.412970332273232,mp-569383,569383
1756,Y3Pt,3.9113995,-0.7050393456249999,0.000403025,0,0,56.36294290894901,54.82633152625592,21.34956178996392,16.892807740909117,19.121184765436517,157.1722217616333,111.62594379799084,45.54627796364244,2.847231474929164,1.412970332273232,mp-7343,7343
1757,CrNiAs,7.59655165,-0.2162036049999985,3.003874833333333,3,1,128.8919792784446,128.83383233587446,61.153056341640756,60.15340358032331,60.65322996098203,157.1722217616333,111.62594379799084,45.54627796364244,2.847231474929164,1.412970332273232,mp-4989,4989
1758,SiB2Mo5,9.15861603,-0.3993866797916663,0.0040335,0,0,271.6932491577546,270.3265924586834,140.82842124169912,135.58562512039765,138.20702318104838,157.1722217616333,111.62594379799084,45.54627796364244,2.847231474929164,1.412970332273232,mp-4984,4984
1759,Zn(GaS2)2,2.25093908,-1.0108555210714287,0.0008867,0,0,45.33610614318083,44.53827056788576,31.50703381352763,26.421407379315546,28.96422059642159,9.502836233916916,3.461791392677796,6.0410448412391204,2.457853706232151,0.082901594506269,mp-34467,34467
1760,SnSe2,2.70440502,-0.6537631132291667,0.0068583,0,0,25.094685485115374,4.444132395428618,16.85399834931125,3.0992754624253465,9.976636905868299,23.896092006398703,9.0042721063987,14.891819900000003,3.8589920834331863,1.412970332273232,mp-665,665
1761,ZrInNi2,7.65480843,-0.4057173399999998,0.0033189,0,0,139.46965046353327,139.46965046353327,54.0032438559785,48.351525060860254,51.17738445841938,157.1722217616333,111.62594379799084,45.54627796364244,2.847231474929164,1.412970332273232,mp-20744,20744
1762,CaSiPt,6.07199502,-0.9149188199999992,2.5e-06,0,0,102.32050466628368,101.54277305345745,40.72117215916044,38.52296796172817,39.6220700604443,157.1722217616333,111.62594379799084,45.54627796364244,2.847231474929164,1.412970332273232,mp-8983,8983
1763,Hf2In5,7.07158071,-0.13381056571428576,0.0013544,0,0,72.50088539770314,71.270627371499,45.899157629882865,44.69161046506536,45.295384047474116,157.1722217616333,111.62594379799084,45.54627796364244,2.847231474929164,1.412970332273232,mp-22050,22050
1764,MgAlRh2,6.6319041,-0.8417332850000001,0.000631,0,0,157.11912495287842,157.1191249528784,84.85549452518187,84.77577536813735,84.8156349466596,157.1722217616333,111.62594379799084,45.54627796364244,2.847231474929164,1.412970332273232,mp-865155,865155
1765,Cd(CuO2)2,2.87230555,-1.0861086542857146,7.92e-05,0,0,127.02625170747059,120.39706164450754,50.643142240399136,44.683830543545135,47.663486391972135,16.597412178457052,4.271309046332724,12.326103132124329,3.5108550428811967,1.412970332273232,mp-772099,772099
1766,CuMoF6,-0.33655274,-2.3515484293749997,2.9587504,2,2,36.496527910713695,32.447997075038714,-26.99308828099597,43.713695749310205,8.360303734157117,157.1722217616333,111.62594379799084,45.54627796364244,2.847231474929164,1.412970332273232,mp-556093,556093
1767,InRh,9.09954075,-0.41382653999999963,2.58e-05,0,0,151.36514040902193,151.36513934770198,25.70620281685437,-3378.4162047701748,-1676.3550009766602,157.1722217616333,111.62594379799084,45.54627796364244,2.847231474929164,1.412970332273232,mp-899,899
1768,CaZrO3,1.9903747,-3.670175069500001,1e-07,0,0,148.6250245860704,147.88556568263922,85.57532890744473,84.73044030332888,85.1528846053868,48.72495161333333,44.01203754666667,4.7129140666666665,2.1709247031315173,1.412970332273232,mp-4571,4571
1769,Sr2BrN,2.55923509,-1.516210923958333,0.0002198,0,0,43.384622509288455,43.375190996442484,27.394552907535157,26.2302949877477,26.812423947641427,15.803764950309414,10.823399063642752,4.9803658866666645,2.2316733378043176,1.412970332273232,mp-23056,23056
1770,TiO2,1.87577596,-3.442377666944445,0.000281975,0,0,100.74124309675227,87.62471094835787,61.22189920865451,46.52976816812273,53.875833688388624,157.1722217616333,111.62594379799084,45.54627796364244,2.847231474929164,1.412970332273232,mp-9173,9173
1771,LaMg3,4.33331321,-0.13245981624999992,0.002274,0,0,36.98482759391157,36.98482759391157,27.544326552008382,23.040402327781997,25.292364439895188,157.1722217616333,111.62594379799084,45.54627796364244,2.847231474929164,1.412970332273232,mp-2306,2306
1772,Ni2Ge,8.97771088,-0.3031515466666666,0.00010735,0,0,170.5467459424684,164.646365242782,44.62425127600874,42.59009264993235,43.60717196297055,157.1722217616333,111.62594379799084,45.54627796364244,2.847231474929164,1.412970332273232,mp-17383,17383
1773,SiB,6.75751775,0.3849905579166668,0.00015305,0,0,133.35074680889556,117.85967131168269,41.146536555812006,-121.17626775737159,-40.01486560077979,157.1722217616333,111.62594379799084,45.54627796364244,2.847231474929164,1.412970332273232,mp-978495,978495
1774,NaBF4,-3.27112384,-3.233942295119732,0.0,0,0,25.946762452936248,25.62860734874923,13.38075789927464,9.896109895211703,11.638433897243171,4.700990369988041,2.946986196654708,1.7540041733333338,1.3243882260626352,1.412970332273232,mp-3521,3521
1775,Cl2,-1.70072791,0.00037706999999986834,0.0022798,0,0,2.9381276256499738,0.9192370773916311,1.8354858178554683,0.4777353480286877,1.156610582942078,2.826333296664792,0.19464536999812423,2.6316879266666677,1.6222478006354848,1.412970332273232,mp-22848,22848
1776,LiFeF4,-2.45490376,-2.775441544722223,4.99986605,2,2,40.482023102453525,23.560723496929235,21.2429077054564,0.15777913595043594,10.700343420703417,13.567199234019887,11.263465709011207,2.3037335250086777,1.5178054964351255,1.412970332273232,mp-777801,777801
1777,Ba2ZrO4,1.879255,-3.430685784285714,8.44e-05,0,0,106.29888612093522,106.17083982381638,57.612962881641806,55.06508548076203,56.33902418120192,43.575648230000006,39.04330006,4.53234817,2.1289312271654057,1.412970332273232,mp-8335,8335
1778,BaNaScSi2O7,1.94761757,-3.340330475545977,4.44e-05,0,0,89.47283038494044,85.99446448447655,48.29675620995883,41.614011102746886,44.95538365635286,157.1722217616333,111.62594379799084,45.54627796364244,2.847231474929164,1.412970332273232,mp-866298,866298
1779,Si,5.23118778,0.41511527000000026,0.0001372,0,0,64.08196175552084,39.54850685237873,21.23129605781798,-92.27861804643304,-35.523660994307534,157.1722217616333,111.62594379799084,45.54627796364244,2.847231474929164,1.412970332273232,mp-644693,644693
1780,ScBr2,3.9371498,-1.796615241666667,0.98184755,2,1,34.10013650440723,32.88210963718194,20.316629383723743,17.518413169762702,18.917521276743223,157.1722217616333,111.62594379799084,45.54627796364244,2.847231474929164,1.412970332273232,mp-862565,862565
1781,SrZnCl4,-0.15399714,-2.213104383611111,0.00060495,0,0,31.88382979482971,31.112978988329086,12.766069418282314,12.414785626807554,12.590427522544934,157.1722217616333,111.62594379799084,45.54627796364244,2.847231474929164,1.412970332273232,mp-23034,23034