,formula_pretty,efermi,formation_energy_per_atom,total_magnetization_normalized_formula_units,num_magnetic_sites,num_unique_magnetic_sites,k_voigt,k_reuss,g_voigt,g_reuss,g_vrh,e_total,e_ionic,e_electronic,n,e_ij_max,material_id,b
624,LiNiO2,3.90358136,-1.4854022958333335,1.0011771,1,1,111.48775633439914,109.109901325923,-68.59393572026809,131.9292147410981,31.667639510415,157.1722217616333,111.62594379799084,45.54627796364244,2.847231474929164,1.412970332273232,mp-25411,25411
625,KScO2,1.82205967,-3.098326909499999,0.001144,0,0,98.14423608658367,97.04859065440976,65.12557781895096,59.03731118398183,62.08144450146639,18.90612635314209,15.038986496475422,3.8671398566666664,1.966504476645468,1.412970332273232,mp-8188,8188
626,TiTl3F6,4.14524517,-2.6572973688333335,0.7986199,1,1,31.926254470640952,31.926254470641002,-1.138865251038935,-1.0802756136772813,-1.1095704323581081,157.1722217616333,111.62594379799084,45.54627796364244,2.847231474929164,1.412970332273232,mp-15635,15635
627,Zn3C,3.39199167,1.0398175525000002,3.26e-05,0,0,93.39787100672297,93.39787100672297,2.881142630671642,-35.35715508705279,-16.238006228190574,157.1722217616333,111.62594379799084,45.54627796364244,2.847231474929164,1.412970332273232,mp-971857,971857
628,Ca3CrN3,4.82031387,-1.0773968164285708,0.9802998,2,1,85.8657722108232,85.81495303527797,51.472687576677586,50.792093383435656,51.13239048005662,157.1722217616333,111.62594379799084,45.54627796364244,2.847231474929164,1.412970332273232,mp-8670,8670
629,ScNiP,8.16308964,-1.2034788686111106,1.225e-06,0,0,151.64154700662618,151.47857124194542,92.25999309515973,91.37048301584191,91.81523805550083,157.1722217616333,111.62594379799084,45.54627796364244,2.847231474929164,1.412970332273232,mp-10240,10240
630,NbO2,3.94162394,-2.8584483316666662,0.0004049,0,0,197.13593761559304,163.89497637651408,107.94132178463744,70.95302618224268,89.44717398344005,157.1722217616333,111.62594379799084,45.54627796364244,2.847231474929164,1.412970332273232,mp-755690,755690
631,Al2FeCo,8.12703371,-0.47433088375000043,0.0653204,1,1,181.144894462433,181.14489446240682,119.40200653778304,113.92166269717403,116.66183461747853,157.1722217616333,111.62594379799084,45.54627796364244,2.847231474929164,1.412970332273232,mp-862691,862691
632,AlCrNi2,7.83429479,-0.2621346124999997,3.2104089,3,2,162.12391406151949,162.12391406151525,71.88476247548493,-1.1580046311525578,35.36337892216619,157.1722217616333,111.62594379799084,45.54627796364244,2.847231474929164,1.412970332273232,mp-10885,10885
633,Li13Si4,1.83733469,-0.23409543137254935,7.555e-05,0,0,32.54070752010361,32.43394369825894,28.246494455195798,27.023675985326616,27.635085220261207,157.1722217616333,111.62594379799084,45.54627796364244,2.847231474929164,1.412970332273232,mp-672287,672287
634,Mn5SiC,7.60754404,-0.1789220095935968,4.85589595,20,5,221.06025278405082,217.79349720923406,119.6222575263739,109.09498294877143,114.35862023757267,157.1722217616333,111.62594379799084,45.54627796364244,2.847231474929164,1.412970332273232,mp-18468,18468
635,SnO,7.28048149,-1.1842075549999995,1.345e-05,0,0,99.59565527284495,73.37657414059343,59.26850544030649,37.89363476356321,48.581070101934856,157.1722217616333,111.62594379799084,45.54627796364244,2.847231474929164,1.412970332273232,mp-999142,999142
636,Ti3Zn,5.25664635,-0.10705795749999947,0.0046846,0,0,110.65194221021422,110.65194221021422,55.00565926616776,53.23053009704608,54.11809468160692,157.1722217616333,111.62594379799084,45.54627796364244,2.847231474929164,1.412970332273232,mp-866186,866186
637,Ti2FeSe4,5.31860142,-1.1621229594345235,2.2203547,3,2,58.80094692104868,58.302270988114536,43.14368866470512,39.5773522403098,41.36052045250746,157.1722217616333,111.62594379799084,45.54627796364244,2.847231474929164,1.412970332273232,mp-5090,5090
638,Nb2Se,5.6846319,-0.6698707199479171,4.3425e-05,0,0,122.56379927267656,122.1605800908573,58.41807998502206,56.42231033147533,57.420195158248696,157.1722217616333,111.62594379799084,45.54627796364244,2.847231474929164,1.412970332273232,mp-27793,27793
639,MnFeAs,7.25146101,-0.1988801876436794,4.188225266666667,6,2,158.68579344395468,158.51648682072073,73.83240635629508,69.20897959304267,71.52069297466888,157.1722217616333,111.62594379799084,45.54627796364244,2.847231474929164,1.412970332273232,mp-4238,4238
640,YMgTl,5.18843855,-0.35048175111111135,0.00028776666666666665,0,0,53.94009985479011,53.87658747667346,39.886882703451114,38.206124211541905,39.04650345749651,157.1722217616333,111.62594379799084,45.54627796364244,2.847231474929164,1.412970332273232,mp-11984,11984
641,ZrMnP,7.25178396,-1.0369406870881217,1.98429115,4,1,174.96447945755344,174.28161304406376,113.28345955923334,107.92948712186127,110.6064733405473,157.1722217616333,111.62594379799084,45.54627796364244,2.847231474929164,1.412970332273232,mp-20147,20147
642,Mg23Al30,5.64197928,-0.023268360566037954,0.002781,0,0,55.73972789209756,55.71073481902421,18.90742788268374,18.4824861855671,18.694957034125423,157.1722217616333,111.62594379799084,45.54627796364244,2.847231474929164,1.412970332273232,mp-17659,17659
643,WO3,0.49097422,-2.181652613125001,5.4475e-05,0,0,39.79569769732829,34.17059009670762,64.6962054488877,57.53292214358374,61.114563796235714,287.51898916763054,280.88553907828344,6.633450089347105,2.575548502619802,0.21764978206226535,mp-1396391,1396391
644,ZnNi2Ge,7.78062571,-0.2368817662499998,9.03e-05,0,0,148.4849891255809,148.48498912558097,48.470106150512144,32.132896994251475,40.30150157238181,157.1722217616333,111.62594379799084,45.54627796364244,2.847231474929164,1.412970332273232,mp-16358,16358
645,Li7Sn3,3.95860187,-0.39368295233333334,0.00167305,0,0,30.54843303514202,30.516164910871872,28.468932768777936,17.815591510587545,23.142262139682742,157.1722217616333,111.62594379799084,45.54627796364244,2.847231474929164,1.412970332273232,mp-30768,30768
646,Pr2S3,3.90446601,-2.355719752875001,0.0,0,0,73.09609091389984,72.35764593602848,34.93681169826348,34.078576178375435,34.50769393831946,157.1722217616333,111.62594379799084,45.54627796364244,2.847231474929164,1.412970332273232,mp-15179,15179
647,V3Pt,6.91494203,-0.42717150250000024,0.3042985,6,1,217.71004408985823,217.7100440898582,95.37573684941361,91.68479726575933,93.53026705758647,157.1722217616333,111.62594379799084,45.54627796364244,2.847231474929164,1.412970332273232,mp-2211,2211
648,AgBiS2,4.63209558,-0.47334871072916673,0.0012246,0,0,62.395702293754965,60.4193410810074,16.966239140696896,13.852880374076266,15.409559757386582,157.1722217616333,111.62594379799084,45.54627796364244,2.847231474929164,1.412970332273232,mp-29678,29678
649,O2,-0.60071025,0.0,2.15e-06,0,0,5.735299558776113,5.621182428339651,2.2355210978928715,1.4336570183122501,1.8345890581025608,157.1722217616333,111.62594379799084,45.54627796364244,2.847231474929164,1.412970332273232,mp-12957,12957
650,Mg2Sn,4.51017571,-0.18713612833333335,0.0012246,0,0,40.76445340211363,40.764453402113645,26.036799269755516,25.6609927863673,25.848896028061407,157.1722217616333,111.62594379799084,45.54627796364244,2.847231474929164,1.412970332273232,mp-2343,2343
651,HoBr3,-1.65632521,-2.2405649143750006,1.2e-06,0,0,6.974503670622532,0.6267852603109617,4.110795046106994,0.2331639012372002,2.1719794736720974,157.1722217616333,111.62594379799084,45.54627796364244,2.847231474929164,1.412970332273232,mp-977375,977375
652,FeP2,8.53079943,-0.5367611155555553,6.5e-07,0,0,182.60460087225664,177.37622979124058,160.82322173816422,146.48866687569273,153.65594430692846,37.56547513,14.517190630000002,23.048284499999998,4.800862891189458,1.412970332273232,mp-20027,20027
653,CO2,-4.09997108,-1.7701240000000003,0.00048525,0,0,4.842149358770976,4.842149358770975,2.656327155438095,2.651945998658886,2.65413657704849,2.077496053333333,0.2123756333333333,1.8651204199999993,1.3656941165575838,1.412970332273232,mp-20066,20066
654,LiTi2N3,3.76938656,-1.5286589508333333,4.25e-06,0,0,131.7236428049151,119.76077184148743,83.7467791277513,59.04414394399768,71.39546153587449,157.1722217616333,111.62594379799084,45.54627796364244,2.847231474929164,1.412970332273232,mp-1029424,1029424
655,Sr(CoAs)2,5.0172952,-0.614873599333334,0.9989588,2,1,73.02572300200826,69.52445674921108,37.30213923774799,29.41472611478031,33.35843267626415,157.1722217616333,111.62594379799084,45.54627796364244,2.847231474929164,1.412970332273232,mp-571203,571203
656,Y(PdO2)2,3.09628447,-1.982918236666666,0.015063,0,0,155.7192846239021,152.94372405769693,61.98836242456741,54.311410912938086,58.14988666875275,157.1722217616333,111.62594379799084,45.54627796364244,2.847231474929164,1.412970332273232,mp-15053,15053
657,As2Se3,1.60280202,-0.3966222139062495,0.00047215,0,0,12.01579521783526,3.1996142621442205,8.068755946485574,0.865901260561566,4.46732860352357,10.408760983333332,2.329757033333333,8.079003949999999,2.8423588707269176,1.412970332273232,mp-909,909
658,Sr(CdAs)2,2.79757789,-0.6248035473333335,0.0002564,0,0,46.48943209419122,45.8925410828819,28.352535892790687,27.823350095937776,28.087942994364234,149.1641568033415,12.060783313341497,137.10337349,11.709114974668239,1.412970332273232,mp-7771,7771
659,Ti2CuSb3,8.03878381,-0.3949323577777785,0.2351558,0,0,91.91324921019837,91.84289169404131,52.07134951084461,47.21344423905523,49.642396874949924,157.1722217616333,111.62594379799084,45.54627796364244,2.847231474929164,1.412970332273232,mp-505804,505804
660,Ti2O,7.5196252,-2.0355361072222222,0.0006439,0,0,184.02556828140973,183.5444883602666,111.69902184821994,100.80154258608377,106.25028221715186,157.1722217616333,111.62594379799084,45.54627796364244,2.847231474929164,1.412970332273232,mp-1215,1215
661,EuSi2,5.93086709,-0.44842850833333375,6.9662623,1,1,63.197647006858496,59.5396670413251,31.677573004055862,12.01854483026754,21.8480589171617,157.1722217616333,111.62594379799084,45.54627796364244,2.847231474929164,1.412970332273232,mp-19862,19862
662,Ca3Fe2O7,2.72404396,-2.4104254045833327,8.0095236,4,4,126.68984901332176,124.06388938320134,60.03159522392002,57.9743443290194,59.00296977646971,157.1722217616333,111.62594379799084,45.54627796364244,2.847231474929164,1.412970332273232,mp-1324016,1324016
663,InAs,3.88498542,-0.22866252750000005,0.0,0,0,49.15915091766797,49.15915091766797,26.718962844293856,23.54186137735801,25.130412110825933,157.1722217616333,111.62594379799084,45.54627796364244,2.847231474929164,1.412970332273232,mp-20305,20305
664,Ga2CoO4,2.9322124,-2.026136891071429,5.025e-06,4,1,169.23594599124007,169.2359459912401,78.9958884664808,67.05640515484703,73.02614681066392,11.91712787718128,7.547056098116395,4.370071779064883,2.0904716642578256,1.412970332273232,mp-765466,765466
665,Na3CuO2,1.74513126,-1.3201194282758622,1.205e-05,0,0,46.310300061109075,39.60788016939585,21.651545970559937,12.497321627475511,17.074433799017726,157.1722217616333,111.62594379799084,45.54627796364244,2.847231474929164,1.412970332273232,mp-779545,779545
666,NiB,9.34900673,-0.24213156458333263,0.00500775,0,0,261.5172365733531,257.1412826687726,113.14271704648725,109.46847090947414,111.30559397798069,157.1722217616333,111.62594379799084,45.54627796364244,2.847231474929164,1.412970332273232,mp-14019,14019
667,HfMnSi,6.81924173,-0.6658372109770099,1.4733311,4,1,162.38909318460674,162.23024571633457,95.71929055304143,77.05526465124709,86.38727760214425,157.1722217616333,111.62594379799084,45.54627796364244,2.847231474929164,1.412970332273232,mp-20192,20192
668,Co3Se4,5.74439944,-0.5408628320535708,0.4204999,1,2,96.37380266844914,93.44195067384176,45.42175493090784,42.55246701480036,43.9871109728541,157.1722217616333,111.62594379799084,45.54627796364244,2.847231474929164,1.412970332273232,mp-11800,11800
669,ZrZn2,3.58751394,-0.3025525683333334,0.9105588,2,1,102.13351695050306,102.13351695050306,59.49654269642056,59.390238870808055,59.443390783614305,157.1722217616333,111.62594379799084,45.54627796364244,2.847231474929164,1.412970332273232,mp-1401,1401
670,TlCdRh2,6.19832774,-0.03904961083333358,0.0011203,0,0,138.24133483031449,138.2413348303145,56.37335173129169,46.147700351908775,51.26052604160023,157.1722217616333,111.62594379799084,45.54627796364244,2.847231474929164,1.412970332273232,mp-866188,866188
671,Zr2CS,6.7970435,-1.4631769157812498,0.001219,0,0,165.23342785828567,164.78487076816782,112.9682520403376,110.58332577592657,111.77578890813209,157.1722217616333,111.62594379799084,45.54627796364244,2.847231474929164,1.412970332273232,mp-5025,5025
672,LiTiTe2,5.97431376,-1.0378445691666665,0.9978179,1,1,38.00013786892628,37.9980392826049,25.856024083039372,24.545447888558353,25.200735985798865,157.1722217616333,111.62594379799084,45.54627796364244,2.847231474929164,1.412970332273232,mp-10189,10189
673,BaMgV4O8,3.65271106,-2.5295085149999994,8.0003523,4,1,103.3575728753545,101.71857675846807,41.31793532736031,31.349377304430003,36.333656315895155,157.1722217616333,111.62594379799084,45.54627796364244,2.847231474929164,1.412970332273232,mp-1044203,1044203
674,PbBr2,1.4536601,-1.2662063583333334,0.0001589,0,0,6.1749669551942326,-2.591435511712603,4.244050490010305,0.558555575497384,2.4013030327538445,157.1722217616333,111.62594379799084,45.54627796364244,2.847231474929164,1.412970332273232,mp-28077,28077
675,Hf2InC,6.95719039,-0.7095990200000006,0.00041475,0,0,129.76379644568917,129.31250243716417,92.80242461667464,91.12430213374186,91.96336337520825,157.1722217616333,111.62594379799084,45.54627796364244,2.847231474929164,1.412970332273232,mp-22156,22156
676,Ti2CdC,5.01977095,-0.5368769529166668,0.0019419,0,0,113.17847624089501,110.39852846529332,62.96221554360007,43.784792314875155,53.373503929237614,157.1722217616333,111.62594379799084,45.54627796364244,2.847231474929164,1.412970332273232,mp-9961,9961
677,Li3Sb,2.34408978,-0.6769047100000001,0.00079715,0,0,27.876667144423397,27.647135518776047,25.296215068097453,22.330277414236555,23.813246241167004,12.393047629978353,4.101689143307933,8.291358486670418,2.879471911075088,1.412970332273232,mp-7955,7955
678,CuNi2Sb,10.07701749,-0.13936845999999914,3.39e-05,0,0,148.68923602737536,148.68923602737502,47.433118996593684,3.855047570240149,25.64408328341692,157.1722217616333,111.62594379799084,45.54627796364244,2.847231474929164,1.412970332273232,mp-30069,30069
679,Ca2CoN2,4.25642897,-0.7855157419999997,1.01144585,2,1,76.74698227941374,64.17740647715054,42.55053043173481,32.34663433763457,37.44858238468469,157.1722217616333,111.62594379799084,45.54627796364244,2.847231474929164,1.412970332273232,mp-1400520,1400520
680,MgCuO2,5.84753068,-1.95542530125,0.00020955,0,0,139.31132227205978,127.84210932485782,70.0371515316978,58.98444409802581,64.5107978148618,157.1722217616333,111.62594379799084,45.54627796364244,2.847231474929164,1.412970332273232,mp-997031,997031
681,ZnSnN2,5.03195107,-0.1402182462500008,1.8725e-05,0,0,133.01647052192857,132.94294821505412,65.86953721634842,64.0479129306879,64.95872507351817,165.28074769666668,6.41674287,158.86400482666667,12.604126499947018,1.0695680322915413,mp-1029469,1029469
682,Hf2SeN2,5.46005967,-1.9007174164687513,0.0005176,0,0,159.74735356434724,158.5147214321876,83.74571476083244,79.51744882812204,81.63158179447724,23.41070392998091,13.798599599980912,9.612104330000001,3.1003393894862543,1.412970332273232,mp-1029330,1029330
683,Rb2MnO4,0.05133045,-1.7215459004187192,0.99965745,4,4,23.57908838545289,23.471314968105055,11.227408190042413,10.739539134999461,10.983473662520936,157.1722217616333,111.62594379799084,45.54627796364244,2.847231474929164,1.412970332273232,mp-505209,505209
684,TeO3,4.2079196,-1.3215608325000003,0.0002182,0,0,97.30880483110786,83.48683166634464,116.09517951503162,76.2440477550718,96.16961363505172,14.968562446497685,9.475404923169666,5.49315752332802,2.3437486049762293,1.412970332273232,mp-2552,2552
685,BaI2,1.67744917,-2.0507060824999996,0.000272475,0,0,15.48796182592309,15.151735721496358,6.39218035717617,5.432262719485628,5.912221538330899,157.1722217616333,111.62594379799084,45.54627796364244,2.847231474929164,1.412970332273232,mp-23260,23260
686,SrAlSi,4.45072699,-0.37533015555555593,0.0015381,0,0,55.82211546300404,48.75344218566349,39.50954102906782,38.12089213526854,38.815216582168176,157.1722217616333,111.62594379799084,45.54627796364244,2.847231474929164,1.412970332273232,mp-3698,3698
687,GdF3,1.35545096,-4.112800554375,6.9998877,1,1,137.53276259514098,137.53276259514098,43.85966759897562,-40.731469218669865,1.5640991901528771,157.1722217616333,111.62594379799084,45.54627796364244,2.847231474929164,1.412970332273232,mp-972965,972965
688,YMoO3,4.77950415,-2.698696288333332,2.9958244,2,1,153.1158921464212,150.99257672062342,37.25424096882774,1.4275985281785573,19.340919748503147,157.1722217616333,111.62594379799084,45.54627796364244,2.847231474929164,1.412970332273232,mp-1445377,1445377
689,TiO,6.02271116,-2.795379665833334,0.2826999666666667,2,1,207.0136961659929,207.01369616599297,50.666779545855114,50.60180471409475,50.63429212997493,157.1722217616333,111.62594379799084,45.54627796364244,2.847231474929164,1.412970332273232,mp-755300,755300
690,Ca2CdSb2,4.30574164,-0.8620967455000003,0.000108525,0,0,34.463313681841186,25.107667532559248,22.219686528265342,18.81414236180438,20.51691444503486,46.73632982,33.309101596666665,13.42722822333333,3.664318248096545,1.412970332273232,mp-569267,569267
691,Mn3PtN,5.9905489,-0.38122425375862007,9.6325775,4,2,172.53588519257954,172.5358851925795,76.8597729836503,76.85951107947152,76.85964203156091,157.1722217616333,111.62594379799084,45.54627796364244,2.847231474929164,1.412970332273232,mp-7070,7070
692,Ti5Sb3,8.23222472,-0.5631139933333333,0.00029925,0,0,111.84902104101377,109.97204204602535,47.22766823928189,44.77146293452472,45.9995655869033,157.1722217616333,111.62594379799084,45.54627796364244,2.847231474929164,1.412970332273232,mp-22033,22033
693,Ti3AlC,6.78068226,-0.5924399459999989,0.0015806,0,0,152.90942717807798,152.90942717807798,102.82930723212822,98.45315168342455,100.64122945777638,157.1722217616333,111.62594379799084,45.54627796364244,2.847231474929164,1.412970332273232,mp-3271,3271
694,Y3InC,4.26136703,-0.5324160460000001,0.0018995,0,0,76.56783560255543,76.56783560255542,63.368855930012344,63.24062571020331,63.304740820107824,157.1722217616333,111.62594379799084,45.54627796364244,2.847231474929164,1.412970332273232,mp-19817,19817
695,TiF2,6.38551706,-3.0149259494444443,2.0006539,1,1,109.2136835973442,109.2136835973442,56.10118451548984,54.255605176549,55.178394846019415,157.1722217616333,111.62594379799084,45.54627796364244,2.847231474929164,1.412970332273232,mp-282,282
696,VBr2O,0.63130591,-1.6076525450000005,1.0002742,1,1,39.970562265756776,3.384502753509258,30.20443141955103,3.4709075168755104,16.83766946821327,19.890330429178235,11.735294788861966,8.155035640316266,2.8557023024671646,1.412970332273232,mp-27713,27713
697,Li3NbO4,1.69490759,-2.6498756837499995,0.0010275,0,0,126.1079935000674,90.61463157046228,96.71926189729645,85.03586479223145,90.87756334476396,157.1722217616333,111.62594379799084,45.54627796364244,2.847231474929164,1.412970332273232,mp-36086,36086
698,BRh,7.39308391,-0.3779623545833326,6e-06,0,0,278.5243133077636,271.76177238624024,111.7353721750453,90.65701990425053,101.19619603964792,157.1722217616333,111.62594379799084,45.54627796364244,2.847231474929164,1.412970332273232,mp-567164,567164
699,Hf3ZnN,5.15566244,-0.9629369550000006,0.0127879,0,0,150.53294873101652,149.29438801956871,90.99566222948579,88.10517435875144,89.55041829411861,157.1722217616333,111.62594379799084,45.54627796364244,2.847231474929164,1.412970332273232,mp-1014252,1014252
700,LiFePO4,2.60398314,-2.4802079830952377,0.0,4,2,91.26030232840793,90.46522858299866,48.834085297708235,47.27078006361596,48.05243268066209,157.1722217616333,111.62594379799084,45.54627796364244,2.847231474929164,1.412970332273232,mp-19017,19017