,formula_pretty,efermi,formation_energy_per_atom,total_magnetization_normalized_formula_units,num_magnetic_sites,num_unique_magnetic_sites,k_voigt,k_reuss,g_voigt,g_reuss,g_vrh,e_total,e_ionic,e_electronic,n,e_ij_max,material_id,b
3249,CsAgBr3,0.12176696,-1.2416455954195402,0.0008237,0,0,26.190585030241646,26.190386935426957,10.653271017228766,10.300496558513581,10.476883787871174,157.1722217616333,111.62594379799084,45.54627796364244,2.847231474929164,1.412970332273232,mp-998344,998344
3250,SrHfO3,2.46646277,-3.7799941883333332,0.0001568,0,0,163.23738362131766,163.23738362131766,103.09527324397996,97.55754029196316,100.32640676797156,157.1722217616333,111.62594379799084,45.54627796364244,2.847231474929164,1.412970332273232,mp-4551,4551
3251,ZrAl2,6.79490826,-0.5378202358333333,0.000297275,0,0,113.4988817878995,113.4228238726126,87.67091419290341,87.17453034496148,87.42272226893245,157.1722217616333,111.62594379799084,45.54627796364244,2.847231474929164,1.412970332273232,mp-2772,2772
3252,Sr(ZnSb)2,4.04763704,-0.5584826973333336,0.0008959,0,0,42.29240306922608,41.77150086353493,20.47903584582603,15.846224780296941,18.162630313061484,157.1722217616333,111.62594379799084,45.54627796364244,2.847231474929164,1.412970332273232,mp-7431,7431
3253,TbMn2O5,3.03278239,-2.651355032920259,7.000672575,8,2,160.33536180431798,149.48903164382017,79.86806802459056,76.02892732786184,77.9484976762262,157.1722217616333,111.62594379799084,45.54627796364244,2.847231474929164,1.412970332273232,mp-18525,18525
3254,BiSI,2.7460447,-0.6956007602083331,0.000687925,0,0,9.017029876059746,5.37433932965146,5.107869382191762,-1.4415673528432809,1.8331510146742405,157.1722217616333,111.62594379799084,45.54627796364244,2.847231474929164,1.412970332273232,mp-23514,23514
3255,Ni3Se2,6.4337717,-0.4549654489374994,0.0007289,0,0,105.86906737811472,105.11147181255572,47.31202008798023,45.85154003857209,46.581780063276156,157.1722217616333,111.62594379799084,45.54627796364244,2.847231474929164,1.412970332273232,mp-2056,2056
3256,S,0.49291477,0.06450051020833314,1.4499999999999999e-06,0,0,1.4463000573619993,1.2325704730987899,1.187345209033004,0.7846440515383747,0.9859946302856892,157.1722217616333,111.62594379799084,45.54627796364244,2.847231474929164,1.412970332273232,mp-7,7
3257,Mg2AgPt,4.92117958,-0.5761871891666663,0.0016311,0,0,90.66951146842348,90.66951146842348,40.66301417483647,23.722712590911787,32.19286338287413,157.1722217616333,111.62594379799084,45.54627796364244,2.847231474929164,1.412970332273232,mp-864932,864932
3258,K3VO4,-0.87830623,-2.264607984875,2.81e-05,0,0,33.5735760888318,33.5606906336488,11.42961450109063,10.458180088999672,10.94389729504515,6.299241479999999,3.7453549766666665,2.553886503333333,1.598088390338073,0.48353999999999986,mp-19052,19052
3259,LiMgP,2.80762785,-0.7620844122222223,0.0001813,0,0,55.12535761878577,55.12535761878576,42.930869994281814,42.93025038286763,42.93056018857472,11.864684839963502,4.894244986630551,6.970439853332951,2.640159058339658,0.16756545609764403,mp-36111,36111
3260,Fe2O3F,1.58549491,-1.6596476462499996,9.0108518,3,4,142.81693813579267,123.93402600431668,67.84424657052622,54.42068913945358,61.1324678549899,157.1722217616333,111.62594379799084,45.54627796364244,2.847231474929164,1.412970332273232,mp-758946,758946
3261,MnAlCu2,7.33968738,-0.1308377819827582,3.5025639,3,2,123.7963283137564,123.7963283137564,66.15223518720003,23.415243091971025,44.78373913958553,157.1722217616333,111.62594379799084,45.54627796364244,2.847231474929164,1.412970332273232,mp-3574,3574
3262,LaLuO3,4.01664616,-3.9886285879999996,3.725e-05,0,0,146.76301229154225,144.9509715217402,71.52403700199287,71.01940259039462,71.27171979619374,157.1722217616333,111.62594379799084,45.54627796364244,2.847231474929164,1.412970332273232,mp-22220,22220
3263,Ca(ZnAs)2,3.55605522,-0.6599641559999998,0.0001917,0,0,57.69097777979979,57.25072151464377,36.77738169298741,34.78143591372882,35.779408803358116,24.27448336666194,9.87448728999527,14.399996076666667,3.7947326752574635,1.412970332273232,mp-9571,9571
3264,Sr4Fe4O11,2.79757029,-2.2831404653508773,17.99852455,8,2,123.28837933479986,122.89702561914682,70.95962863115558,70.56752777355823,70.76357820235691,157.1722217616333,111.62594379799084,45.54627796364244,2.847231474929164,1.412970332273232,mp-690536,690536
3265,Li3CuO3,0.5593831,-1.7813896964285714,0.000177175,0,0,77.81322457561471,77.80352176409944,35.87475406947763,33.274092558089066,34.57442331378335,15.286348160000003,10.00793835666667,5.278409803333332,2.297479010422801,1.412970332273232,mp-19970,19970
3266,Zr2Ni,5.02107207,-0.3230649683333328,0.00134705,0,0,122.81354248104877,120.84352669016022,23.555557478841713,19.89373903129261,21.724648255067162,157.1722217616333,111.62594379799084,45.54627796364244,2.847231474929164,1.412970332273232,mp-328,328
3267,CaTi4(CuO4)3,4.65433195,-2.702762577666666,3.0002138,3,1,203.16718613001177,203.16718613001174,107.36602479085232,105.31123068881699,106.33862773983466,157.1722217616333,111.62594379799084,45.54627796364244,2.847231474929164,1.412970332273232,mp-22592,22592
3268,Si5Pt6,8.37421645,-0.6790303699999996,0.0007216,0,0,182.98360780510106,179.1789237596966,71.90468175574448,66.94689946545192,69.4257906105982,157.1722217616333,111.62594379799084,45.54627796364244,2.847231474929164,1.412970332273232,mp-29661,29661
3269,Y2CuRu,4.65397199,-0.31984206708333396,0.0014619,0,0,92.57013715293378,92.57013715293378,37.16158856273179,36.544586809756815,36.8530876862443,157.1722217616333,111.62594379799084,45.54627796364244,2.847231474929164,1.412970332273232,mp-865588,865588
3270,EuF2,4.40400237,-4.072207303333333,6.9996156,1,1,66.06427359312069,66.0642734897346,29.580858031686024,29.190541692391367,29.385699862038695,157.1722217616333,111.62594379799084,45.54627796364244,2.847231474929164,1.412970332273232,mp-504731,504731
3271,C,-1.24547809,0.007251950000000562,0.00017085,0,0,199.02861344924202,0.6056077510037118,155.76696519916925,0.9211066955182716,78.34403594734376,157.1722217616333,111.62594379799084,45.54627796364244,2.847231474929164,1.412970332273232,mp-990448,990448
3272,AlCuAu2,7.67193335,-0.2577237499999998,1.05e-05,0,0,129.38816335865295,129.38816335865303,39.113112730688464,16.57403259157665,27.843572661132555,157.1722217616333,111.62594379799084,45.54627796364244,2.847231474929164,1.412970332273232,mp-867306,867306
3273,ZrFeP,7.40111482,-1.0522487427777776,0.00088605,0,0,202.53571858148337,202.0106016272746,120.27579183458843,117.27362171395387,118.77470677427115,157.1722217616333,111.62594379799084,45.54627796364244,2.847231474929164,1.412970332273232,mp-20892,20892
3274,Zr6FeSb2,5.87787843,-0.5634980400000005,0.0010346,0,0,113.45673834169317,112.89720171783513,58.7220122561678,57.5117047826462,58.116858519407,157.1722217616333,111.62594379799084,45.54627796364244,2.847231474929164,1.412970332273232,mp-12962,12962
3275,NaCrS2,4.10875279,-1.1968854032004304,2.999721,1,1,60.59497170297301,59.22895351978563,38.47217149010803,34.70886044103426,36.59051596557114,13.525611063360763,4.971076250027428,8.554534813333335,2.924813637367915,1.412970332273232,mp-5693,5693
3276,NaFePO4,2.91463893,-2.4143020646264364,3.25e-07,4,4,84.02190821223593,83.19395412343252,43.48721089442588,39.902597771621394,41.694904333023636,157.1722217616333,111.62594379799084,45.54627796364244,2.847231474929164,1.412970332273232,mp-19226,19226
3277,Al2NiO4,5.36524653,-2.779105725000001,9e-06,4,2,136.12849956477442,136.12849956477442,-46.762686648174466,160.2933812683592,56.76534731009237,157.1722217616333,111.62594379799084,45.54627796364244,2.847231474929164,1.412970332273232,mp-688785,688785
3278,Na3ZrF8,-2.07923609,-3.2051317083045974,1.0005253,0,0,40.93267598457268,40.81883072975127,16.96248927490146,16.821262091503527,16.891875683202493,157.1722217616333,111.62594379799084,45.54627796364244,2.847231474929164,1.412970332273232,mp-864745,864745
3279,Ba(NiP)2,5.91791651,-0.7735462113333341,0.0002192,0,0,75.0282799767253,74.84981469645777,40.00633823601672,34.168716658627524,37.08752744732212,157.1722217616333,111.62594379799084,45.54627796364244,2.847231474929164,1.412970332273232,mp-9473,9473
3280,ScRu2,6.41528927,-0.3900683916666665,6.79e-05,0,0,190.30008614690684,189.51910006251615,49.44733561594206,49.18935087591485,49.31834324592845,157.1722217616333,111.62594379799084,45.54627796364244,2.847231474929164,1.412970332273232,mp-567750,567750
3281,MgSc2Ru,4.98767726,-0.3061182737500001,0.000345,0,0,90.91451128381838,90.91451128381838,17.688394069429673,16.582642392134936,17.135518230782303,157.1722217616333,111.62594379799084,45.54627796364244,2.847231474929164,1.412970332273232,mp-866079,866079
3282,Ce(FeP3)4,9.09184086,-0.6489332732352947,0.0070068,0,0,160.92655607888895,160.92655607888895,132.27082993847242,131.7782846880175,132.02455731324494,157.1722217616333,111.62594379799084,45.54627796364244,2.847231474929164,1.412970332273232,mp-16272,16272
3283,TiGaFe2,5.88660186,-0.360476642708333,0.8820686,3,2,189.69557035752987,189.69557035751046,103.21594390082012,96.96618020192427,100.0910620513722,157.1722217616333,111.62594379799084,45.54627796364244,2.847231474929164,1.412970332273232,mp-636320,636320
3284,V3CoO8,2.43467851,-2.1692772545833336,1.9996481,4,4,145.2012926925178,142.204077910758,57.34076340665627,53.501031223770795,55.42089731521354,157.1722217616333,111.62594379799084,45.54627796364244,2.847231474929164,1.412970332273232,mp-755017,755017
3285,YAl3,6.05470019,-0.4378701316666662,0.0036821,0,0,72.58213885557186,70.53148200176824,46.059736795242785,33.279994413782596,39.669865604512694,157.1722217616333,111.62594379799084,45.54627796364244,2.847231474929164,1.412970332273232,mp-865527,865527
3286,TlSbS2,3.56275821,-0.5847535498958338,5.375e-06,0,0,14.536123997088664,11.115535076995862,7.694138285847653,2.4364923258412357,5.065315305844444,60.48898608666669,51.65435341666669,8.834632670000003,2.9723109981965217,1.412970332273232,mp-28230,28230
3287,CoSi2,9.49187212,-0.4214179883333327,0.003825,0,0,176.91166137646638,176.9116613764664,67.9230440953398,60.79599110364257,64.35951759949118,157.1722217616333,111.62594379799084,45.54627796364244,2.847231474929164,1.412970332273232,mp-2379,2379
3288,CaC2,3.33034423,0.023301066666667463,0.00047615,0,0,54.45786276809707,49.91817029796762,17.90898214602748,-12.562150728327344,2.673415708850068,157.1722217616333,111.62594379799084,45.54627796364244,2.847231474929164,1.412970332273232,mp-642822,642822
3289,NbRh,6.07656814,-0.3857052833333334,1e-06,0,0,218.7386849688447,217.7687010049237,65.38903967827824,49.402357636726144,57.395698657502194,157.1722217616333,111.62594379799084,45.54627796364244,2.847231474929164,1.412970332273232,mp-567345,567345
3290,ScCuSi,6.79644105,-0.6357876883333328,4.535e-05,0,0,111.48361812261494,110.91407256374507,64.85028549662216,55.12090299859469,59.985594247608425,157.1722217616333,111.62594379799084,45.54627796364244,2.847231474929164,1.412970332273232,mp-20083,20083
3291,P2O5,0.98677272,-2.433652215595239,0.0,0,0,48.01322709341703,27.83752626795469,37.28204665072562,27.501069865979453,32.39155825835253,157.1722217616333,111.62594379799084,45.54627796364244,2.847231474929164,1.412970332273232,mp-2173,2173
3292,TiInCu2,8.31577378,-0.10921160333333368,0.0002017,0,0,120.0000749935007,120.00007499350072,56.62356492799678,35.60141862908736,46.11249177854207,157.1722217616333,111.62594379799084,45.54627796364244,2.847231474929164,1.412970332273232,mp-22725,22725
3293,DyNiBi,6.06016806,-0.6720167433333325,1.47e-05,0,0,80.08825879061114,80.08825879061114,49.94850919215754,48.01694611113104,48.98272765164429,27.867363119999936,2.69997951,25.167383609999934,5.016710437129089,0.19860333333333344,mp-30452,30452
3294,CoO2,0.85252144,-1.0807989683333343,0.99999945,4,1,86.30479611464133,78.67047788263947,48.30232130199183,22.142978685875764,35.2226499939338,17.569327765298993,3.5655817044767546,14.003746060822237,3.742157941725902,1.412970332273232,mp-1400906,1400906
3295,MnCuPd2,4.99905407,-0.2230072319827583,4.4144952,3,2,150.480021339825,150.48002133982496,57.76369724238148,16.0903104462017,36.92700384429159,157.1722217616333,111.62594379799084,45.54627796364244,2.847231474929164,1.412970332273232,mp-864946,864946
3296,HgS,2.95242572,-0.37518513072916687,0.0,0,0,8.385500299306791,7.323538243863551,8.146319254427429,6.358227804869079,7.252273529648254,11.963143999971829,5.454643329971829,6.508500670000001,2.5511763306365167,0.38217831553095327,mp-634,634
3297,YZnGe,4.74159303,-0.6853151238888889,0.000142525,0,0,78.52863613054645,74.06745108009304,55.96811097301367,52.67289576606154,54.320503369537604,157.1722217616333,111.62594379799084,45.54627796364244,2.847231474929164,1.412970332273232,mp-13160,13160
3298,CdAu,3.67207693,-0.1751432825000001,0.00011315,0,0,90.98112296883352,88.5852793685255,21.247467291734907,12.569858074642884,16.908662683188894,157.1722217616333,111.62594379799084,45.54627796364244,2.847231474929164,1.412970332273232,mp-1404,1404
3299,SiO2,-0.19405989,-3.2610247666666656,0.000707875,0,0,23.043477264565457,15.911408231222255,33.31136037844372,26.217240131552753,29.76430025499824,4.142990917307915,1.8875049519964886,2.2554859653114265,1.5018275418007976,1.412970332273232,mp-557837,557837
3300,Na2NiO2,3.74067829,-1.30730671862069,0.0002151,0,0,-66.64489819621203,184.76257942327499,10.334471295778478,-27.21884362301867,-8.442186163620097,157.1722217616333,111.62594379799084,45.54627796364244,2.847231474929164,1.412970332273232,mp-18765,18765
3301,ScFeSi,6.42500677,-0.6585387658333334,0.0971181,4,1,140.33499758310558,138.53087891871448,65.27853004324655,58.203562142902875,61.741046093074715,157.1722217616333,111.62594379799084,45.54627796364244,2.847231474929164,1.412970332273232,mp-22701,22701
3302,BaCuP,4.72234471,-0.7283870161111109,0.0018622,0,0,57.28757352437055,57.24132478757569,37.20788438350792,36.68830382786186,36.94809410568489,157.1722217616333,111.62594379799084,45.54627796364244,2.847231474929164,1.412970332273232,mp-16254,16254
3303,ZrO2,3.17269552,-3.7920916591666654,1.0625e-05,0,0,190.73138564907285,189.61407696196036,94.4835243406513,90.10470245700009,92.29411339882569,27.806075926666665,22.211494583333334,5.594581343333334,2.36528673596529,2.717734101066548,mp-556605,556605
3304,Sc(FeSi)2,7.55193435,-0.6265037729999989,0.45856235,8,2,171.77217898075082,171.53864254130883,112.2894522302972,108.37487054820338,110.33216138925029,157.1722217616333,111.62594379799084,45.54627796364244,2.847231474929164,1.412970332273232,mp-505554,505554
3305,La3GaO6,4.5723887,-3.5215383287499997,1.165e-05,0,0,113.9785205902664,112.30182880362645,45.3436633288043,42.88893848136406,44.116300905084174,157.1722217616333,111.62594379799084,45.54627796364244,2.847231474929164,1.412970332273232,mp-754150,754150
3306,K3BP2,1.10026404,-0.39561214997222177,0.0005789,0,0,18.41349348929084,17.456153666119228,9.093729536703593,5.413319200556922,7.2535243686302575,10.335135973333335,6.0183462400000005,4.316789733333334,2.0776885554224274,1.412970332273232,mp-9664,9664
3307,Hf2Ni2Sn,7.66831725,-0.5656001960000012,0.0001053,0,0,141.85936190077575,141.66631257423714,67.4846154111486,64.8712402195231,66.17792781533585,157.1722217616333,111.62594379799084,45.54627796364244,2.847231474929164,1.412970332273232,mp-646507,646507
3308,MgO,0.61161617,-2.9792640699999993,2.225e-05,0,0,115.12155190748507,108.95811706097655,48.4051118394187,45.14009911177411,46.77260547559641,6.276275730001719,3.260920570001718,3.01535516,1.7364778029102474,2.5050651409494558,mp-549706,549706
3309,Ca(CdSb)2,4.08951227,-0.5325872279999999,0.0001124,0,0,39.14241565688592,38.60037041818363,20.360363134866898,19.631316631400637,19.99583988313377,51.78226028675129,12.64015562675129,39.14210466,6.25636513160797,1.412970332273232,mp-7430,7430
3310,ZrCu5,6.57894959,-0.11645303166666683,0.001672,0,0,136.71422989326675,136.7142298932667,56.88919960615729,54.94184715963154,55.91552338289442,157.1722217616333,111.62594379799084,45.54627796364244,2.847231474929164,1.412970332273232,mp-30603,30603
3311,V(CrC)2,8.03682169,-0.17988100699999876,9.15e-06,0,0,291.21263779894923,290.99214829567603,137.1279801415323,100.55067028737321,118.83932521445276,157.1722217616333,111.62594379799084,45.54627796364244,2.847231474929164,1.412970332273232,mp-4253,4253
3312,LiClO4,-0.27450269,-1.0080158651388895,0.0004227,0,0,28.21019718096869,25.777285243432623,15.755345204867558,13.12111471876582,14.438229961816688,51.688585100000005,49.36665352333333,2.321931576666667,1.5237885603543122,1.412970332273232,mp-30301,30301
3313,PtPb4,6.7453991,-0.12681435599999985,0.0014743,0,0,45.58746630765211,43.765404522091586,14.990190723587625,13.319318142196035,14.154754432891831,157.1722217616333,111.62594379799084,45.54627796364244,2.847231474929164,1.412970332273232,mp-21296,21296
3314,MgNi2Sn,8.39228165,-0.27605854875,0.0016372,0,0,114.49005725365338,114.49005725365332,54.59122581604508,35.845007254725914,45.2181165353855,157.1722217616333,111.62594379799084,45.54627796364244,2.847231474929164,1.412970332273232,mp-30774,30774
3315,Mg(GaO2)2,2.24502556,-2.5302858171428566,6.5e-06,0,0,162.4151195717358,162.4151195717358,82.86568523807937,67.88999738412005,75.3778413110997,157.1722217616333,111.62594379799084,45.54627796364244,2.847231474929164,1.412970332273232,mp-4590,4590
3316,InCuO2,4.87738018,-1.4845387325,0.0011641,0,0,126.91736132421589,114.67528220178113,42.50519278670281,30.640281873808895,36.57273733025585,8.977212079991565,3.4566716999915656,5.52054038,2.3495830225808154,1.412970332273232,mp-20930,20930
3317,LaAs,5.8975965,-1.5636853300000002,1.08e-05,0,0,65.110782954607,65.11078295460699,42.63334997399219,37.12589114923268,39.879620561612434,157.1722217616333,111.62594379799084,45.54627796364244,2.847231474929164,1.412970332273232,mp-708,708
3318,Y2CuO4,3.28298916,-3.0545982604761903,0.0064863,0,0,148.60480748451104,141.55221466001782,72.91137868363208,44.14622540067489,58.52880204215349,157.1722217616333,111.62594379799084,45.54627796364244,2.847231474929164,1.412970332273232,mp-754364,754364
3319,Cs2Mn3S4,3.0347527,-1.0204545885727976,15.00064305,6,2,24.13482270467513,23.694650578838893,12.186830939646303,11.361359139278486,11.774095039462395,157.1722217616333,111.62594379799084,45.54627796364244,2.847231474929164,1.412970332273232,mp-2884,2884
3320,MgPSe3,1.85054648,-0.8881159560729166,3.65e-06,0,0,20.783734528718618,2.4695214155653393,13.842706364431866,1.4472868471991471,7.644996605815506,8.170245143333338,2.5499091033333348,5.620336040000002,2.370724792125818,1.412970332273232,mp-30943,30943
3321,BiTePt,6.90915759,-0.47711152916666677,0.000880225,0,0,86.29996342991701,86.29996342991703,32.816939609537584,32.05724482559456,32.437092217566075,157.1722217616333,111.62594379799084,45.54627796364244,2.847231474929164,1.412970332273232,mp-29638,29638
3322,La2Co3,7.9397067,-0.09097588300000012,1.9271278,6,2,76.96147275631311,73.07619171931269,17.225086197606736,11.093538020835716,14.159312109221226,157.1722217616333,111.62594379799084,45.54627796364244,2.847231474929164,1.412970332273232,mp-569054,569054
3323,KSb(PS3)2,2.14741628,-0.7778746828416665,0.00123985,0,0,11.208298790802651,10.672290521461202,6.998313321186936,6.15179523697004,6.575054279078488,11.39639946,6.316086086666666,5.080313373333333,2.2539550513116566,0.4610497009027948,mp-556609,556609
3324,Ti2Ni,6.57345179,-0.2773286063888894,0.0005527,0,0,141.41887456817207,141.41887456817207,35.565050273548955,35.50787305554632,35.53646166454764,157.1722217616333,111.62594379799084,45.54627796364244,2.847231474929164,1.412970332273232,mp-1808,1808
3325,TiSe2,3.27506234,-1.4263449626736115,0.0014271,0,0,26.925268457223492,5.327417105212967,19.43464521564085,4.26486088726785,11.84975305145435,157.1722217616333,111.62594379799084,45.54627796364244,2.847231474929164,1.412970332273232,mp-2194,2194