,formula_pretty,efermi,formation_energy_per_atom,total_magnetization_normalized_formula_units,num_magnetic_sites,num_unique_magnetic_sites,k_voigt,k_reuss,g_voigt,g_reuss,g_vrh,e_total,e_ionic,e_electronic,n,e_ij_max,material_id,b
779,Ca3Hg2,2.72025066,-0.471531903,0.00289755,0,0,30.396286054577118,30.36227738338906,12.807157819658595,9.964200956429409,11.385679388044002,157.1722217616333,111.62594379799084,45.54627796364244,2.847231474929164,1.412970332273232,mp-11288,11288
780,VSi2,9.90127908,-0.43672019333333306,0.11304306666666668,3,1,175.32165556222648,173.82170633134552,147.49616703467456,146.34289994643268,146.91953349055362,157.1722217616333,111.62594379799084,45.54627796364244,2.847231474929164,1.412970332273232,mp-11190,11190
781,Al2Cu,6.92139889,-0.02356822666666621,0.0008928,0,0,90.21451396107305,90.03397786419598,52.2663184567368,47.304577987887896,49.78544822231235,157.1722217616333,111.62594379799084,45.54627796364244,2.847231474929164,1.412970332273232,mp-12794,12794
782,Fe7W6,6.50990656,-0.0161382561538473,6.2580666,13,5,270.7146103394226,270.2418504727987,133.36530580195134,130.33688380920995,131.85109480558066,157.1722217616333,111.62594379799084,45.54627796364244,2.847231474929164,1.412970332273232,mp-1473,1473
783,Eu(MgBi)2,4.02663449,-0.5484344590000007,6.990631,1,1,33.63644526735776,33.20048903996247,22.270381316804098,21.124662285346723,21.69752180107541,157.1722217616333,111.62594379799084,45.54627796364244,2.847231474929164,1.412970332273232,mp-1006146,1006146
784,ZnS,1.89521442,-1.0507095995625,0.00102942,0,0,69.50701885781123,69.50583030595918,33.87364501109666,32.65834883338362,33.26599692224014,9.265125859678028,3.365141242977963,5.899984616700063,2.4289883936939805,0.10184361744408346,mp-13456,13456
785,TiSiRu,8.29411567,-0.8563297016666682,1.7666666666666668e-06,0,0,203.00085980564452,201.49674318886287,104.67480638580403,101.7020290422558,103.18841771402992,157.1722217616333,111.62594379799084,45.54627796364244,2.847231474929164,1.412970332273232,mp-11560,11560
786,K,0.36966376,0.012324776999999898,0.0009049,0,0,3.7922383385315754,3.7922383385315768,1.30751493547283,-2.530620776619323,-0.6115529205732465,157.1722217616333,111.62594379799084,45.54627796364244,2.847231474929164,1.412970332273232,mp-10157,10157
787,Li3Au,2.47444662,-0.41127635000000007,0.000131,0,0,42.263429840004285,42.263429840004314,16.16306354845221,-3.325365875849216,6.418848836301498,157.1722217616333,111.62594379799084,45.54627796364244,2.847231474929164,1.412970332273232,mp-11247,11247
788,TiFeSb,7.15455414,-0.4316054411111108,0.9911252,2,2,113.55241956246512,113.55241956246512,53.344358040818726,52.219509353070244,52.781933696944485,157.1722217616333,111.62594379799084,45.54627796364244,2.847231474929164,1.412970332273232,mp-10755,10755
789,TiAlAu2,7.05120254,-0.44090986083333394,0.0008706,0,0,140.79900567083504,140.79900567083513,38.6053452198075,12.315297868532301,25.4603215441699,157.1722217616333,111.62594379799084,45.54627796364244,2.847231474929164,1.412970332273232,mp-16482,16482
790,Al4C3,7.3085706,-0.09208207428571415,0.0004236,0,0,160.2265002534915,160.08248343438538,115.0317894677331,110.64340119986588,112.8375953337995,17.828700309990722,9.66265737665743,8.166042933333292,2.8576289005630686,1.412970332273232,mp-1591,1591
791,CuSn,8.46834871,-0.02331130750000021,0.00030375,0,0,76.5203332042294,76.51289251707243,36.74376219555166,31.51426650305605,34.12901434930386,157.1722217616333,111.62594379799084,45.54627796364244,2.847231474929164,1.412970332273232,mp-10598,10598
792,Sr2CrN3,4.71581817,-1.071752565555555,0.310673475,0,0,90.41295784418736,88.71362269397429,48.50735134221472,43.917090862230665,46.21222110222269,157.1722217616333,111.62594379799084,45.54627796364244,2.847231474929164,1.412970332273232,mp-1029923,1029923
793,AlCu3,7.52769223,-0.18149385250000005,0.0005383,0,0,128.68420612824087,128.6842061282409,44.152509825788314,-43.53346436608277,0.3095227298527732,157.1722217616333,111.62594379799084,45.54627796364244,2.847231474929164,1.412970332273232,mp-1008555,1008555
794,Ca(InN)2,6.81068909,-0.4332581620000006,9.66e-05,0,0,91.72052027558105,89.11458023414647,39.29600444540045,-42.60839169087487,-1.6561936227372094,34.403712420000005,12.18000171,22.223710710000002,4.714203083236869,1.412970332273232,mp-1029479,1029479
795,In2Si2O7,7.1636715,-2.5586320727272724,0.00035385,0,0,227.60111288107373,227.60111288107373,98.223907806765,89.40249065039863,93.81319922858182,157.1722217616333,111.62594379799084,45.54627796364244,2.847231474929164,1.412970332273232,mp-19784,19784
796,Sn2Pd,7.88117714,-0.38873621291666716,0.0002695125,0,0,80.7150427539976,80.58517374275067,31.479206406530707,28.379293853896332,29.929250130213518,157.1722217616333,111.62594379799084,45.54627796364244,2.847231474929164,1.412970332273232,mp-1573,1573
797,MgO,4.48784799,-2.3049662474999995,0.0019019,0,0,142.64467252824775,142.64467252824772,92.22872929528164,-104.0147525676233,-5.893011636170833,157.1722217616333,111.62594379799084,45.54627796364244,2.847231474929164,1.412970332273232,mp-1009127,1009127
798,YNi2,5.99512864,-0.4173657172222214,0.0209778,0,0,120.98909197897167,120.9890919789717,47.716733640075944,45.697530449926305,46.707132045001124,157.1722217616333,111.62594379799084,45.54627796364244,2.847231474929164,1.412970332273232,mp-1019,1019
799,CdTe,1.82165467,-0.6633544924999999,8e-06,0,0,35.01902188507979,34.994599301349844,13.403191240436588,12.861005387857798,13.132098314147193,12.24745276000934,3.3380833366760094,8.909369423333331,2.9848566838850625,0.06308164471540162,mp-12779,12779
800,ZnAu3,4.65046605,-0.14774798374999998,0.00020315,0,0,125.08350413708393,124.16204029882022,30.15202837565072,28.010387809895214,29.081208092772968,157.1722217616333,111.62594379799084,45.54627796364244,2.847231474929164,1.412970332273232,mp-1755,1755
801,CaMoO4,1.50237155,-2.6396284475000016,0.0,0,0,75.60479166142484,74.76891766153197,33.97735438919607,32.14150346120012,33.05942892519809,12.350326955279286,8.407637960106948,3.9426889951723383,1.9856205566956489,1.412970332273232,mp-19330,19330
802,LiZnP,3.19037878,-0.5528442322222222,0.0020604,0,0,65.31398304021779,65.31398304021779,51.48128389544171,51.202948818717914,51.34211635707982,15.95766182499657,5.939358894996585,10.018302929999987,3.165170284518668,0.7212112407953629,mp-10182,10182
803,YAgTe2,4.25036392,-1.1391337708333342,0.0002064,0,0,41.40843399488108,41.35750283094706,21.202385621689917,18.488446228929483,19.845415925309702,19.074929030000003,7.463023106666667,11.611905923333333,3.4076246746573093,0.25167999999999996,mp-12903,12903
804,NaMnPO4,2.93894049,-2.564532608616586,5.25e-07,4,1,84.25310572261384,83.46167502427296,41.608990274215735,37.71495311790776,39.66197169606175,157.1722217616333,111.62594379799084,45.54627796364244,2.847231474929164,1.412970332273232,mp-17967,17967
805,SrZn2,2.59796559,-0.18946751388888927,0.00041115,0,0,35.65161919264273,34.968940418640265,19.588545957094446,19.210789507780426,19.399667732437436,157.1722217616333,111.62594379799084,45.54627796364244,2.847231474929164,1.412970332273232,mp-13365,13365
806,NiSe,6.55734533,-0.5232205611718749,0.0015746,0,0,103.95728697728636,103.65148157106007,46.00132099662598,44.25988118098573,45.130601088805854,157.1722217616333,111.62594379799084,45.54627796364244,2.847231474929164,1.412970332273232,mp-15651,15651
807,YbFeO3,2.46764327,-2.4191156835000003,4.000069275,4,1,155.22032296650593,154.9742844138696,77.57509771882836,75.92606384951068,76.75058078416953,157.1722217616333,111.62594379799084,45.54627796364244,2.847231474929164,1.412970332273232,mp-19793,19793
808,NiGe,8.30223044,-0.30497307375000027,0.0002779,0,0,136.53740942840636,135.06119211225726,70.01069526710538,54.10528913251781,62.05799219981159,157.1722217616333,111.62594379799084,45.54627796364244,2.847231474929164,1.412970332273232,mp-1099,1099
809,TiCuSn,8.54156702,-0.2218600794444446,3.79e-05,0,0,109.5166167900725,96.10951901064101,53.72652297963801,50.33933180482902,52.03292739223352,157.1722217616333,111.62594379799084,45.54627796364244,2.847231474929164,1.412970332273232,mp-19983,19983
810,AlAgTe2,3.47746818,-0.5710726966666662,0.00047205,0,0,42.38326912018351,42.33713957617372,17.78098791131903,15.598357283144125,16.689672597231578,10.953366963334181,2.124609936667514,8.828757026666667,2.9713224373444675,0.082745842553318,mp-14092,14092
811,CdSb,3.82295437,-0.13341415624999975,8.99375e-05,0,0,39.16255716977712,38.83131600961086,17.89050872471299,17.208426313162885,17.549467518937938,38.65860059,10.830225453333334,27.828375136666665,5.2752606700206455,1.412970332273232,mp-1321,1321
812,BeRh,6.73502283,-0.6078159225000004,0.0010401,0,0,206.58381966408157,206.5838196640816,101.28659156076122,98.45592092784904,99.87125624430513,157.1722217616333,111.62594379799084,45.54627796364244,2.847231474929164,1.412970332273232,mp-11276,11276
813,LiBF4,-4.59716786,-3.2542144465277776,0.000252,0,0,10.877752980900631,10.77750769393759,7.233987069120107,7.028025424370976,7.1310062467455415,3.3429300233476673,1.683679723347667,1.6592502999999998,1.288118899791475,0.08224229522534271,mp-12403,12403
814,Nb3B4,7.46395444,-0.7657891780952377,0.0013403,0,0,274.15485048892504,273.73359320683045,200.26989201244672,196.18335057790836,198.22662129517755,157.1722217616333,111.62594379799084,45.54627796364244,2.847231474929164,1.412970332273232,mp-10255,10255
815,GaCo2Ni,5.94330911,-0.12846311937499966,3.0261986,3,2,180.89791725010753,179.85396697140177,70.72871957923688,44.28805953567996,57.50838955745842,157.1722217616333,111.62594379799084,45.54627796364244,2.847231474929164,1.412970332273232,mp-20551,20551
816,Ag,3.94067991,0.0036091633333334983,0.0003477,0,0,87.87140622076788,87.87140622076787,28.36162720998772,17.28803453188169,22.824830870934704,157.1722217616333,111.62594379799084,45.54627796364244,2.847231474929164,1.412970332273232,mp-124,124
817,Ni,7.76428507,0.09555978000000032,0.5380801,1,1,189.44599292096234,189.4459929209625,77.5940920572694,-132.04769587863805,-27.226801910684323,157.1722217616333,111.62594379799084,45.54627796364244,2.847231474929164,1.412970332273232,mp-1008728,1008728
818,Ti7Al2O15,6.31389107,-3.394625321180557,3.30217,7,4,197.60497126284818,196.28389613697559,89.20564570643674,83.74319070717928,86.47441820680801,157.1722217616333,111.62594379799084,45.54627796364244,2.847231474929164,1.412970332273232,mp-15397,15397
819,CsAgSe4,1.3113666,-0.7166613610787831,0.000778375,0,0,9.158515416056364,8.068790732569894,6.03354266517262,5.069496748589392,5.551519706881006,9.453780813333333,3.2274409333333334,6.22633988,2.4952634890928853,0.08643,mp-18105,18105
820,Cu2GeS3,5.10895678,-0.5714839032291673,2.82e-05,0,0,71.86403153920054,71.79954087580523,35.63661976539677,30.906595362401482,33.271607563899124,157.1722217616333,111.62594379799084,45.54627796364244,2.847231474929164,1.412970332273232,mp-15252,15252
821,Mn4Al(CuO4)3,4.73879218,-1.534255570086208,9.9981585,7,2,130.13798269249529,130.13798269249526,-49.88001482622065,-34.380113929109825,-42.130064377665235,157.1722217616333,111.62594379799084,45.54627796364244,2.847231474929164,1.412970332273232,mp-1045744,1045744
822,LiSn2N3,5.07217692,-0.1977146755555547,8.665e-05,0,0,84.77174212073409,84.17924999486672,49.56150056060396,48.574223765449126,49.06786216302655,12.049463199999998,4.949383349999999,7.10007985,2.66459750243822,0.9939575373223946,mp-1029294,1029294
823,SrZn,2.10991117,-0.20881719458333325,0.00041285,0,0,24.49418703528687,23.88123207414099,8.92634711437131,8.67368858382654,8.800017849098925,157.1722217616333,111.62594379799084,45.54627796364244,2.847231474929164,1.412970332273232,mp-12724,12724
824,GaSe,1.23152768,-0.8271763449218748,0.0030614,0,0,22.84729739390364,4.929334850402979,15.647068886493097,1.959474557799704,8.8032717221464,10.30412466318188,2.0542479398485454,8.249876723333335,2.8722598634756804,0.22506499751936904,mp-1572,1572
825,ScAu,5.15531645,-0.8081003674999998,0.0032755,0,0,102.78719246563433,102.78719246563435,38.72175687316057,34.89553141551124,36.80864414433591,157.1722217616333,111.62594379799084,45.54627796364244,2.847231474929164,1.412970332273232,mp-11256,11256
826,ZrTiF6,2.39003621,-3.705917392291666,2.000664,2,2,84.7892800413835,84.78928001540811,42.88657037291621,18.274291014738235,30.580430693827225,157.1722217616333,111.62594379799084,45.54627796364244,2.847231474929164,1.412970332273232,mp-16548,16548
827,SiC2,5.82370922,0.42582455000000036,0.0025385,0,0,168.33811320358026,153.50280912693802,82.17930004764283,35.141433570856485,58.66036680924965,157.1722217616333,111.62594379799084,45.54627796364244,2.847231474929164,1.412970332273232,mp-1019097,1019097
828,Yb,1.44491036,0.002814910000000115,1.12e-05,0,0,15.39769707355675,15.397697073556749,12.368764761300712,6.443016148599987,9.405890454950349,157.1722217616333,111.62594379799084,45.54627796364244,2.847231474929164,1.412970332273232,mp-162,162
829,CaZn2,2.83199279,-0.27431139249999986,0.00030875,0,0,47.804884726040676,47.70286971662423,28.34187248048612,28.08396718279668,28.2129198316414,157.1722217616333,111.62594379799084,45.54627796364244,2.847231474929164,1.412970332273232,mp-13364,13364
830,BaNiSn3,6.7267524,-0.47533043500000005,4.06e-05,0,0,55.55756707838255,55.53874330120148,31.59156758741686,31.431167571610306,31.511367579513582,157.1722217616333,111.62594379799084,45.54627796364244,2.847231474929164,1.412970332273232,mp-11879,11879
831,V3Co,6.06514754,-0.19621856000000015,0.00021955,0,0,210.63075077347185,210.63075077347182,113.18333559552484,106.51101140249267,109.84717349900876,157.1722217616333,111.62594379799084,45.54627796364244,2.847231474929164,1.412970332273232,mp-1585,1585
832,LiVN2,1.78584866,-1.0134646627083335,0.000246075,0,0,81.98990219883366,78.70483878585543,46.751087529846956,44.47346559848363,45.61227656416529,22.491170513333334,12.774058223333332,9.717112290000001,3.117228302514912,0.8556230303118307,mp-1029932,1029932
833,YAl,4.72661104,-0.41490384833333316,0.0002805,0,0,64.8770714779592,64.87707147795923,44.12231778389891,25.21540037206273,34.66885907798082,157.1722217616333,111.62594379799084,45.54627796364244,2.847231474929164,1.412970332273232,mp-11229,11229
834,LiMgSnPt,7.23081837,-0.6660068770833334,0.0004911,0,0,88.20701610429569,88.2070161042957,47.31815349204937,31.730203476645716,39.524178484347544,157.1722217616333,111.62594379799084,45.54627796364244,2.847231474929164,1.412970332273232,mp-11806,11806
835,Na,1.24715506,0.012337643448275815,0.0012962,0,0,7.512214997807318,7.512214997807319,4.336643971260412,2.052614918032443,3.1946294446464276,157.1722217616333,111.62594379799084,45.54627796364244,2.847231474929164,1.412970332273232,mp-127,127
836,Mg(ScGa)2,3.76531258,-0.5084744669999999,0.00081615,0,0,69.96956480926754,69.83937013105546,52.114862107608594,39.92994931277756,46.02240571019308,157.1722217616333,111.62594379799084,45.54627796364244,2.847231474929164,1.412970332273232,mp-13570,13570
837,Ag3Pt,3.76041254,0.012626642499999896,0.000607,0,0,120.19137885547482,120.19137885547484,38.65297143782574,29.554370390771734,34.10367091429874,157.1722217616333,111.62594379799084,45.54627796364244,2.847231474929164,1.412970332273232,mp-12065,12065
838,ZrAl,5.31155941,-0.4631682924999998,0.0006778,0,0,108.67578462761448,107.86395802519397,72.06576829960315,63.16851173562506,67.6171400176141,157.1722217616333,111.62594379799084,45.54627796364244,2.847231474929164,1.412970332273232,mp-11233,11233
839,AlNi,10.47765691,-0.6588078599999996,0.0010254,0,0,161.57857260376278,161.57857260376278,83.86798753440748,59.99598112385445,71.93198432913096,157.1722217616333,111.62594379799084,45.54627796364244,2.847231474929164,1.412970332273232,mp-1487,1487
840,Cs2Pt,1.89759569,0.040925541379310516,0.0001363,0,0,13.438290112584973,10.552256662789874,5.592138068988335,3.5268680280473435,4.55950304851784,157.1722217616333,111.62594379799084,45.54627796364244,2.847231474929164,1.412970332273232,mp-13548,13548
841,YSF,4.28635563,-3.2964692407638885,2.55e-06,0,0,105.78996439893655,105.75599651866271,54.26705623155713,53.1292394086579,53.698147820107515,17.563756746666666,11.743995926666665,5.819760819999999,2.4124180442037817,1.412970332273232,mp-10086,10086
842,Cu3Sn,8.79381758,0.00024571500000014623,0.0004278,0,0,107.12610029144659,105.7109301835031,39.03335384207295,35.62137272236123,37.32736328221709,157.1722217616333,111.62594379799084,45.54627796364244,2.847231474929164,1.412970332273232,mp-13138,13138
843,ScTlS2,4.93511539,-1.6191099711458339,4.5e-05,0,0,50.35261497641803,50.28070738608195,27.370416194206605,26.72106821415248,27.045742204179543,30.83532505332799,22.186077793327986,8.649247260000001,2.9409602615472386,1.412970332273232,mp-13312,13312
844,Tl2O3,3.7723753,-1.1039688953333333,5.08e-05,0,0,108.81595141135409,108.8159514113541,31.893185880941942,31.331436864616858,31.612311372779402,157.1722217616333,111.62594379799084,45.54627796364244,2.847231474929164,1.412970332273232,mp-1658,1658
845,Ni3Pt,7.79805323,-0.06934912249999936,2.2323666,4,2,206.37122731325513,206.3712273132551,97.91673245353813,86.04620762216967,91.98147003785391,157.1722217616333,111.62594379799084,45.54627796364244,2.847231474929164,1.412970332273232,mp-12798,12798
846,TiCu3,6.83672224,-0.09324999208333384,0.00178455,0,0,139.60936493925587,139.550780907074,54.21297391014499,48.468891871777,51.34093289096099,157.1722217616333,111.62594379799084,45.54627796364244,2.847231474929164,1.412970332273232,mp-12546,12546
847,NbAu2,6.01766236,-0.11724955000000037,0.0012031,0,0,175.0906883519271,174.98332148378327,70.20649591638562,57.11757516567707,63.662035541031344,157.1722217616333,111.62594379799084,45.54627796364244,2.847231474929164,1.412970332273232,mp-1606,1606
848,HfSi,7.44900616,-0.7825321449999993,3.5e-06,0,0,152.7902267226417,152.51925798920013,99.47498099692244,91.7477429225107,95.61136195971656,157.1722217616333,111.62594379799084,45.54627796364244,2.847231474929164,1.412970332273232,mp-1042,1042
849,Ti2AlC,6.78520972,-0.7002686229166679,0.0014093,0,0,137.1391590147675,136.68111680398158,112.54896919060994,112.135107756643,112.34203847362647,157.1722217616333,111.62594379799084,45.54627796364244,2.847231474929164,1.412970332273232,mp-12990,12990
850,SrPd5,2.98979878,-0.37395709444444414,0.0017453,0,0,109.03707699929963,106.92579654902845,47.582122987867486,46.71652062779079,47.14932180782914,157.1722217616333,111.62594379799084,45.54627796364244,2.847231474929164,1.412970332273232,mp-1260,1260
851,Nb5Si3,6.97602949,-0.6525949093750008,6.785e-05,0,0,194.55239399122874,194.30821020577196,123.83017515968344,122.91832765578384,123.37425140773364,157.1722217616333,111.62594379799084,45.54627796364244,2.847231474929164,1.412970332273232,mp-13686,13686
852,NaAlTe2,3.79437726,-0.8814405216379306,1.715e-05,0,0,22.956245281620344,21.302146950206353,11.68187647107411,-1.73541316876322,4.973231651155445,17.8481845566861,10.333388686686098,7.51479587,2.741312800466229,1.412970332273232,mp-10163,10163
853,ScS,7.30601067,-2.1194875090625,0.0010328,0,0,101.29049245346064,101.29049245346064,58.4557294513627,43.5124547347546,50.98409209305865,157.1722217616333,111.62594379799084,45.54627796364244,2.847231474929164,1.412970332273232,mp-1476,1476
854,RbCu3S2,4.76905449,-0.6155900081250003,0.0022203,0,0,43.62497731625927,41.74756582491619,22.16183780660879,17.889571203877285,20.025704505243038,157.1722217616333,111.62594379799084,45.54627796364244,2.847231474929164,1.412970332273232,mp-10985,10985
855,Rb2PtC2,1.2735678,-0.06286787499999917,4.54e-05,0,0,48.683831802377554,24.867618269922627,26.28463860278266,6.943275484815703,16.613957043799182,11.98203588665414,5.584943079987472,6.3970928066666675,2.529247478335536,1.412970332273232,mp-10919,10919
856,NaGe2N3,4.0458762,-0.3874263202586204,0.0001269,0,0,135.70077767989255,134.9298455852873,79.60930589459836,76.25191834118212,77.93061211789023,11.505849903333333,6.2517840300000005,5.2540658733333325,2.292174922062741,0.548641625289223,mp-14433,14433