,formula_pretty,efermi,formation_energy_per_atom,total_magnetization_normalized_formula_units,num_magnetic_sites,num_unique_magnetic_sites,k_voigt,k_reuss,g_voigt,g_reuss,g_vrh,e_total,e_ionic,e_electronic,n,e_ij_max,material_id,b
3712,NaTi2O4,5.82464248,-3.1396710397454837,0.999708375,8,2,144.328632201147,143.5088404119413,78.73456869287868,75.94534438137387,77.33995653712628,157.1722217616333,111.62594379799084,45.54627796364244,2.847231474929164,1.412970332273232,mp-29356,29356
3713,Co(BW)2,8.00231673,-0.45845287266666757,0.0080831,0,0,334.63478133224464,334.3875684299941,210.87399925480756,204.40080159289994,207.63740042385376,157.1722217616333,111.62594379799084,45.54627796364244,2.847231474929164,1.412970332273232,mp-7573,7573
3714,K(Cu2As)2,5.19217508,-0.18536469042857157,0.0024083,0,0,57.46594444910594,47.02028860109523,24.874466235030855,13.570224553446131,19.222345394238495,157.1722217616333,111.62594379799084,45.54627796364244,2.847231474929164,1.412970332273232,mp-8608,8608
3715,LiMgN,2.98337128,-0.7575710144444449,0.00010335,0,0,95.5775318264226,95.4527905027161,82.4464769473719,75.82402811736473,79.13525253236833,157.1722217616333,111.62594379799084,45.54627796364244,2.847231474929164,1.412970332273232,mp-30156,30156
3716,ScCo,4.95127863,-0.37063166500000033,0.0333728,1,1,120.99643947652261,120.9964394765226,60.181536181824114,58.77918083733779,59.48035850958095,157.1722217616333,111.62594379799084,45.54627796364244,2.847231474929164,1.412970332273232,mp-2212,2212
3717,LaNi5,8.42713528,-0.28169956083333386,1.2522742,5,2,135.74028869112487,135.07755960113963,59.79087752621308,57.52452739919025,58.657702462701664,157.1722217616333,111.62594379799084,45.54627796364244,2.847231474929164,1.412970332273232,mp-2317,2317
3718,Sr3Ag2,2.23840584,-0.267407286,0.0008777,0,0,21.334294599013894,20.92905619307312,10.282108620549685,9.814227632981215,10.04816812676545,157.1722217616333,111.62594379799084,45.54627796364244,2.847231474929164,1.412970332273232,mp-30357,30357
3719,Be22W,4.81686506,-0.04122714347826117,2.075e-05,0,0,133.329197541947,133.329197541947,150.16775358105392,149.89285656834798,150.03030507470095,157.1722217616333,111.62594379799084,45.54627796364244,2.847231474929164,1.412970332273232,mp-30444,30444
3720,YCuPb,6.39971028,-0.4047946405555554,0.00040095,0,0,68.39769984845609,67.04499777029669,44.97787394627162,43.890933800035604,44.43440387315361,157.1722217616333,111.62594379799084,45.54627796364244,2.847231474929164,1.412970332273232,mp-20865,20865
3721,Y2MgAl,4.09329367,-0.299468005833333,0.004213,0,0,54.95808990261389,54.95808990261388,41.41138874176799,30.55397664003123,35.98268269089961,157.1722217616333,111.62594379799084,45.54627796364244,2.847231474929164,1.412970332273232,mp-865602,865602
3722,Al2CoRu,8.58139834,-0.6576831350000001,0.003023,0,0,188.1581945657527,188.1581945657527,111.70424705627592,110.69117874518719,111.19771290073155,157.1722217616333,111.62594379799084,45.54627796364244,2.847231474929164,1.412970332273232,mp-862695,862695
3723,ZrVSi,6.22679015,-0.7322134649999997,2.6e-06,0,0,155.99917152790772,155.76617013562222,93.06390447286275,27.199194615524075,60.13154954419341,157.1722217616333,111.62594379799084,45.54627796364244,2.847231474929164,1.412970332273232,mp-5541,5541
3724,SiP,6.96510642,0.2310720083333333,0.0014511,0,0,53.42368974490928,53.42368974490929,-57.55345788254099,-55.15149293447878,-56.35247540850989,157.1722217616333,111.62594379799084,45.54627796364244,2.847231474929164,1.412970332273232,mp-8097,8097
3725,Fe5Si3,8.10397613,-0.3560548775000001,7.44210435,10,2,185.18329246118216,185.18108703543137,105.5554913972687,101.07671673506691,103.31610406616781,157.1722217616333,111.62594379799084,45.54627796364244,2.847231474929164,1.412970332273232,mp-449,449
3726,LiCdPd2,2.90110697,-0.44532083333333317,3.12e-05,0,0,90.44190448609591,90.44190448609591,28.25609600411361,12.935850875636632,20.59597343987512,157.1722217616333,111.62594379799084,45.54627796364244,2.847231474929164,1.412970332273232,mp-867924,867924
3727,NbB2,8.44622833,-0.6938497461111103,0.0024194,0,0,288.3575807213537,286.1403817497721,200.32002156086128,189.9583211155992,195.13917133823026,157.1722217616333,111.62594379799084,45.54627796364244,2.847231474929164,1.412970332273232,mp-450,450
3728,Na2FeO2,2.72445769,-1.524361982620689,5e-08,4,1,59.67423958562467,55.391300888803414,29.59295052003601,-4.482681900751508,12.55513430964225,9.784018433333332,5.985879513333333,3.7981389199999995,1.9488814535522676,0.5383526415835627,mp-754743,754743
3729,GaCuPt2,6.61118478,-0.4756986018749991,0.0002497,0,0,186.87265560385427,186.67560181800894,74.39976181349321,69.27536336691978,71.83756259020649,157.1722217616333,111.62594379799084,45.54627796364244,2.847231474929164,1.412970332273232,mp-644280,644280
3730,TiB,6.79493263,-0.8320523850000008,0.0023259,0,0,207.60420196833113,206.7115184540348,191.45068835993828,188.0761270227528,189.76340769134555,157.1722217616333,111.62594379799084,45.54627796364244,2.847231474929164,1.412970332273232,mp-7857,7857
3731,Fe3PtN,6.39377339,-0.2517392170000008,8.0705807,4,2,214.10198981652428,214.1019898165243,101.01978285726506,99.49224747216785,100.25601516471644,157.1722217616333,111.62594379799084,45.54627796364244,2.847231474929164,1.412970332273232,mp-579496,579496
3732,ZrAlNi2,6.97627983,-0.5980511675000004,0.0272344,0,0,148.56194832066888,148.56194832066888,39.40112889546193,39.38641912953528,39.393774012498604,157.1722217616333,111.62594379799084,45.54627796364244,2.847231474929164,1.412970332273232,mp-3944,3944
3733,V3Sn,7.74350295,-0.06510671249999955,0.7034491,6,1,162.64155344453175,162.64155344453175,23.25053682939126,20.565513168816903,21.908024999104082,157.1722217616333,111.62594379799084,45.54627796364244,2.847231474929164,1.412970332273232,mp-21342,21342
3734,YAlO3,4.50416888,-3.720762192833333,0.0,0,0,190.53311347580936,189.0659514616636,113.89817993931551,108.98821725206282,111.44319859568917,15.949112836666666,11.81848548,4.130627356666667,2.0323944884462435,1.412970332273232,mp-3792,3792
3735,Li7VN4,1.35690698,-0.9227858510069448,0.0,0,0,83.22745285771678,83.22745285771678,75.18147128225131,69.24501075706883,72.21324101966007,10.075839826666668,4.975113066666668,5.10072676,2.2584788597638012,1.412970332273232,mp-4604,4604
3736,Li2FeP2O7,0.58474736,-2.569700776319444,6.9e-06,4,2,57.62305929842497,48.89829614291707,28.368823347367904,20.28258801796405,24.325705682665976,157.1722217616333,111.62594379799084,45.54627796364244,2.847231474929164,1.412970332273232,mp-26025,26025
3737,In2O3,5.14775141,-1.9676603030000002,5.55e-06,0,0,153.1449188909977,148.86308050958195,60.84600055155152,59.396151147122204,60.12107584933686,157.1722217616333,111.62594379799084,45.54627796364244,2.847231474929164,1.412970332273232,mp-22323,22323
3738,ScSiNi,7.11457212,-0.8650207241666656,7.2025e-05,0,0,133.08105251083828,131.6456988773618,73.34365638282277,70.4846548552389,71.91415561903084,157.1722217616333,111.62594379799084,45.54627796364244,2.847231474929164,1.412970332273232,mp-22426,22426
3739,CoB,7.45021879,-0.40207765458333355,5.5e-06,0,0,303.436933420003,301.84274267423336,154.32738459283888,148.88273925940928,151.60506192612408,157.1722217616333,111.62594379799084,45.54627796364244,2.847231474929164,1.412970332273232,mp-20857,20857
3740,YCd3,3.03844963,-0.2930405429166667,0.00011195,0,0,56.2898191494813,55.33275021438072,26.374510808988532,21.01030337551322,23.692407092250875,157.1722217616333,111.62594379799084,45.54627796364244,2.847231474929164,1.412970332273232,mp-2349,2349
3741,Tl(FeSe)2,5.02928264,-0.41639578560416624,5.7535461,2,1,44.50615182766647,42.42250952118556,22.597578987117604,20.16299064628634,21.380284816701973,157.1722217616333,111.62594379799084,45.54627796364244,2.847231474929164,1.412970332273232,mp-3021,3021
3742,VSnO4,4.53249233,-2.278321618333333,1.0001426,1,1,204.36325555750187,199.69894811777178,114.70455881049423,92.30207406756176,103.503316439028,157.1722217616333,111.62594379799084,45.54627796364244,2.847231474929164,1.412970332273232,mp-752504,752504
3743,Zn7Mo,3.57737046,-0.025340735000000336,0.0083127,0,0,102.10679960871684,102.10679960845327,50.25130461581728,42.49692689049362,46.37411575315545,157.1722217616333,111.62594379799084,45.54627796364244,2.847231474929164,1.412970332273232,mp-644500,644500
3744,Pb,6.4145578,0.047538199999999975,0.0004736,0,0,37.942874654524594,37.94287465452458,4.2138930771851335,110.82115786383966,57.517525470512396,157.1722217616333,111.62594379799084,45.54627796364244,2.847231474929164,1.412970332273232,mp-22692,22692
3745,BaNb2O6,1.50559952,-3.2160994216666663,2.45e-05,0,0,100.13897212868756,75.4266184278252,44.60086800201388,24.545030192524973,34.57294909726943,157.1722217616333,111.62594379799084,45.54627796364244,2.847231474929164,1.412970332273232,mp-28150,28150
3746,BaNbO3,4.78470394,-3.178755383,0.0006883,0,0,167.45715176643,167.45715176643003,90.7415176832539,88.4065078050601,89.574012744157,157.1722217616333,111.62594379799084,45.54627796364244,2.847231474929164,1.412970332273232,mp-3020,3020
3747,InAgO2,3.51252289,-1.3966343666666665,3.62e-05,0,0,113.00718178508853,104.99967183411033,39.640850344888335,22.06302391990248,30.851937132395406,157.1722217616333,111.62594379799084,45.54627796364244,2.847231474929164,1.412970332273232,mp-22660,22660
3748,MoI3,1.99450958,-0.2587096637500004,2.6842913,2,1,5.6131647418944075,1.215953688558659,3.5527301330352072,0.6414951060221419,2.0971126195286747,157.1722217616333,111.62594379799084,45.54627796364244,2.847231474929164,1.412970332273232,mp-864733,864733
3749,Rb2SO4,-0.11980954,-2.265194921875,0.000265325,0,0,25.447624134514303,25.305247053269408,13.074101463484801,12.981985192691639,13.02804332808822,157.1722217616333,111.62594379799084,45.54627796364244,2.847231474929164,1.412970332273232,mp-3372,3372
3750,FeSn2,8.92609547,0.012176361666665988,1.54439055,2,1,80.1843464375932,79.61620921184684,56.99807246172543,54.30550628697931,55.65178937435237,157.1722217616333,111.62594379799084,45.54627796364244,2.847231474929164,1.412970332273232,mp-22752,22752
3751,RbTiCl3,3.91850136,-2.0291016151666668,1.2537333,2,1,18.045215466104025,16.433668122637645,8.82456838977911,7.396232953878636,8.110400671828874,157.1722217616333,111.62594379799084,45.54627796364244,2.847231474929164,1.412970332273232,mp-28282,28282
3752,MgW3,5.96363852,0.4971541587500017,7.23e-05,0,0,155.07462535669634,147.27809761698396,38.35672380090558,6.682656622929837,22.519690211917705,157.1722217616333,111.62594379799084,45.54627796364244,2.847231474929164,1.412970332273232,mp-978264,978264
3753,ZnPt,5.60020711,-0.5653964449999997,0.0002679,0,0,172.05042680258296,171.88477719753521,67.32555755614399,57.70768262129005,62.51662008871702,157.1722217616333,111.62594379799084,45.54627796364244,2.847231474929164,1.412970332273232,mp-894,894
3754,Mg(AlSi)2,5.90586732,0.021274475999999255,0.0007983,0,0,65.63672912954884,62.35186933548408,33.500102156394725,31.973669091051974,32.73688562372335,157.1722217616333,111.62594379799084,45.54627796364244,2.847231474929164,1.412970332273232,mp-3833,3833
3755,Ca3N2,2.8139048,-0.9011241389999995,9.9275e-05,0,0,72.4889837287867,72.17396977196853,40.0156517794221,39.16296596471506,39.589308872068585,157.1722217616333,111.62594379799084,45.54627796364244,2.847231474929164,1.412970332273232,mp-568293,568293
3756,CoAsS,6.81323563,-0.6168651643749996,0.0002138,0,0,134.66334067746732,134.26215349132514,99.01553702614446,91.8855375916688,95.45053730890663,157.1722217616333,111.62594379799084,45.54627796364244,2.847231474929164,1.412970332273232,mp-553946,553946
3757,Be2Cu,5.98688926,-0.14037420000000012,0.0002841,0,0,136.68569015028243,136.68569015028245,125.55418302008407,125.27171413110631,125.41294857559518,157.1722217616333,111.62594379799084,45.54627796364244,2.847231474929164,1.412970332273232,mp-2031,2031
3758,HfBiO4,3.38698669,-2.719543048333333,0.0003615,0,0,131.79218570835576,127.09937542624155,63.51098384789337,56.64816114309252,60.07957249549295,157.1722217616333,111.62594379799084,45.54627796364244,2.847231474929164,1.412970332273232,mp-756683,756683
3759,ZnO,2.44274937,-1.6436028375,0.0065712,0,0,172.3617867479866,172.36178674798654,67.87362538715963,62.50085326924233,65.18723932820097,157.1722217616333,111.62594379799084,45.54627796364244,2.847231474929164,1.412970332273232,mp-2229,2229
3760,Si3N4,9.05546558,-1.011888492857143,0.000630825,0,0,256.0803254600921,253.77820842368217,167.091430096596,121.03375710349498,144.0625936000455,157.1722217616333,111.62594379799084,45.54627796364244,2.847231474929164,1.412970332273232,mp-641539,641539
3761,NiMoP,10.34358763,-0.558123895555555,0.003860133333333333,0,0,241.78320449925144,240.87834957702808,96.28541270140072,94.49073696918994,95.38807483529533,157.1722217616333,111.62594379799084,45.54627796364244,2.847231474929164,1.412970332273232,mp-7632,7632
3762,WO3,0.38298012,-2.1848598118750004,0.0014163,0,0,64.61109294314957,53.60110970506857,102.78086935831291,69.72924914794218,86.25505925312754,157.1722217616333,111.62594379799084,45.54627796364244,2.847231474929164,1.412970332273232,mp-18773,18773
3763,CdGeP2,3.01166382,-0.0919403541666659,3.855e-05,0,0,65.2649372382254,65.21916578500398,37.07483078297755,32.91697724799537,34.99590401548646,16.11734259334379,2.6776337733437834,13.439708820000005,3.666020842821274,0.15015593232742513,mp-3668,3668
3764,MgAl2Cu,6.38939331,-0.18240740000000022,0.00142265,0,0,77.988850249712,77.90162078779404,49.824547021669446,46.43291508057753,48.12873105112349,157.1722217616333,111.62594379799084,45.54627796364244,2.847231474929164,1.412970332273232,mp-3034,3034
3765,FeGeRu2,7.21998204,-0.1612749962500004,4.0157663,3,2,227.23569471642017,227.23569471642017,100.07724142638205,98.51342913942986,99.29533528290595,157.1722217616333,111.62594379799084,45.54627796364244,2.847231474929164,1.412970332273232,mp-865191,865191
3766,Na2Ti9O19,2.24311653,-3.2904893322701145,0.003662,0,0,130.59268997446927,117.86988141662768,60.409828102860295,56.56463239585999,58.48723024936014,157.1722217616333,111.62594379799084,45.54627796364244,2.847231474929164,1.412970332273232,mp-850251,850251
3767,RuO2,4.57067993,-1.4576657566666664,0.0002023,0,0,257.0148276776365,246.93405736166605,117.60799364352222,67.45903843621642,92.53351603986931,157.1722217616333,111.62594379799084,45.54627796364244,2.847231474929164,1.412970332273232,mp-825,825
3768,VGaFe2,6.4687618,-0.2984274568750003,5.05e-05,0,0,228.30333758031085,228.30333757975328,123.67035692219126,123.1875497055816,123.42895331388644,157.1722217616333,111.62594379799084,45.54627796364244,2.847231474929164,1.412970332273232,mp-21883,21883
3769,Si3Ru4,9.65860184,-0.519311343928571,0.00282615,0,0,238.55230994529882,226.01443450481682,107.0873741879989,99.89722325798425,103.49229872299158,157.1722217616333,111.62594379799084,45.54627796364244,2.847231474929164,1.412970332273232,mp-510412,510412
3770,ZrSb2,7.61738155,-0.6786046216666671,0.0001653375,0,0,81.20406300626522,81.00607458082719,50.478686051661576,49.41472036271507,49.94670320718832,157.1722217616333,111.62594379799084,45.54627796364244,2.847231474929164,1.412970332273232,mp-979,979
3771,MgFeO3,2.80588013,-2.0144870909999995,3.99498175,2,1,146.9903861753957,144.42585260967968,63.860893413125645,55.87578664388584,59.86834002850574,157.1722217616333,111.62594379799084,45.54627796364244,2.847231474929164,1.412970332273232,mp-754508,754508
3772,Cu2SnHgSe4,3.27550872,-0.507914574921875,0.0017445,0,0,52.88518652504259,52.885105079740974,21.824806932853974,18.199316046469665,20.012061489661818,157.1722217616333,111.62594379799084,45.54627796364244,2.847231474929164,1.412970332273232,mp-16566,16566
3773,YB2C,6.08567105,-0.5241349431249995,1.12125e-05,0,0,183.22119160660876,171.06670537809683,142.85637836187482,136.8362614339687,139.84631989792177,157.1722217616333,111.62594379799084,45.54627796364244,2.847231474929164,1.412970332273232,mp-9880,9880
3774,Al2O3,-2.10873168,-3.2164927756666675,0.0009989666666666665,0,0,73.47607227902134,-0.04882689074230256,6.5587642903419106,-0.16936679100961996,3.1946987496661454,157.1722217616333,111.62594379799084,45.54627796364244,2.847231474929164,1.412970332273232,mp-985587,985587
3775,TiCdF6,-3.1622213,-3.283530064791667,1.57e-05,0,0,11.674558635478597,7.686827315761732,19.38297341265379,10.117116996365027,14.750045204509409,7.520502603333333,5.055518213333333,2.4649843899999992,1.5700268755661475,1.412970332273232,mp-623024,623024
3776,Rb2NbCl6,1.5100812,-2.0215770605555554,0.9944077,1,1,9.59969476546419,9.568365140489218,4.216677503424718,3.842239613595118,4.029458558509917,157.1722217616333,111.62594379799084,45.54627796364244,2.847231474929164,1.412970332273232,mp-570558,570558
3777,Mn2Sn,7.44546701,0.16125265304597627,6.0329308,4,2,96.17159039543782,93.75289729881628,49.013317596890694,41.97531024341387,45.49431392015228,157.1722217616333,111.62594379799084,45.54627796364244,2.847231474929164,1.412970332273232,mp-22514,22514
3778,VOF,3.54501665,-2.8100831324999995,1.999620225,4,1,164.57464554846086,162.15142934556206,85.88159016366515,79.47535722548928,82.6784736945772,10.930148703333336,6.358706306666666,4.571442396666667,2.138093168378466,0.12411000000000001,mp-753200,753200
3779,CdSnAs2,2.94334634,-0.13178138875000034,8.575e-05,0,0,47.32907161934725,47.324240941740264,24.4451719977662,21.61282147279261,23.028996735279406,157.1722217616333,111.62594379799084,45.54627796364244,2.847231474929164,1.412970332273232,mp-3829,3829
3780,ZnCu2O3,4.09504256,-1.1287596141666671,0.0003777,0,0,110.683816003013,73.82254300687971,39.24812597701093,29.052412678581515,34.150269327796224,157.1722217616333,111.62594379799084,45.54627796364244,2.847231474929164,1.412970332273232,mp-754010,754010
3781,ScFeO3,3.99539746,-2.7649669220000006,5.0,4,3,175.2987134146213,172.45209304116295,75.2033462935549,72.81813526302138,74.01074077828814,157.1722217616333,111.62594379799084,45.54627796364244,2.847231474929164,1.412970332273232,mp-754342,754342
3782,Sn4Bi2Se7,4.54676396,-0.6338696620312502,0.0043545,0,0,32.468442980730515,29.875901911359986,22.79055789195846,13.526834496230391,18.158696194094425,157.1722217616333,111.62594379799084,45.54627796364244,2.847231474929164,1.412970332273232,mp-675477,675477
3783,Li2ZrF6,-2.60549617,-3.681093611296296,0.0002662,0,0,58.44036037237432,57.31609470308311,36.72005964101128,34.21101460432463,35.46553712266795,10.593169163333298,8.271320069999966,2.321849093333334,1.523761494897851,1.412970332273232,mp-4002,4002
3784,Sr(CuGe)2,5.70690102,-0.3668175953333332,8.12e-05,0,0,71.14237178453385,71.13996782670841,42.532972121142556,40.11401127832522,41.32349169973389,157.1722217616333,111.62594379799084,45.54627796364244,2.847231474929164,1.412970332273232,mp-3241,3241
3785,CdI2,1.05870737,-0.8310418833333335,0.00053865,0,0,9.937629855033029,2.0413907341071806,5.348239931388602,0.8379354883730662,3.0930877098808343,9.960417353742745,5.564268613742744,4.396148740000002,2.096699487289488,1.412970332273232,mp-568233,568233
3786,CoPO4,2.09296265,-2.0891926280555566,8.425e-06,4,1,88.21015900758353,77.04715271018297,62.73323503870351,60.132460982214155,61.432848010458834,157.1722217616333,111.62594379799084,45.54627796364244,2.847231474929164,1.412970332273232,mp-27046,27046
3787,Ti3Pd5,5.63420611,-0.6168922500000003,0.0028835,0,0,161.79833421526484,161.77445249364757,56.46567727006063,31.558152548010103,44.01191490903537,157.1722217616333,111.62594379799084,45.54627796364244,2.847231474929164,1.412970332273232,mp-570199,570199
3788,Zr2AlC,5.22871888,-0.6439247312499994,0.00023945,0,0,124.173065578743,123.59531160152443,90.07253489091472,89.55849191071557,89.81551340081515,157.1722217616333,111.62594379799084,45.54627796364244,2.847231474929164,1.412970332273232,mp-3886,3886