,formula_pretty,efermi,formation_energy_per_atom,total_magnetization_normalized_formula_units,num_magnetic_sites,num_unique_magnetic_sites,k_voigt,k_reuss,g_voigt,g_reuss,g_vrh,e_total,e_ionic,e_electronic,n,e_ij_max,material_id,b
1782,InAgSe2,2.32018131,-0.6557057028385413,0.00118225,0,0,44.77648067439074,44.776470818271655,15.433484971476924,12.869820084064168,14.151652527770546,13.658163323333332,3.512346373333333,10.145816949999999,3.1852499038536988,0.20373000000000008,mp-20554,20554
1783,NaCN,-1.7079776,-0.3001599888505749,4.2e-05,0,0,24.69613117161736,21.31210214647876,12.594190087847009,8.981508866489559,10.787849477168283,157.1722217616333,111.62594379799084,45.54627796364244,2.847231474929164,1.412970332273232,mp-30053,30053
1784,CsPbCl3,1.10693936,-1.8810223475862067,5.54e-05,0,0,21.29321263000016,21.293212630000163,11.36220392654373,7.5113205216793455,9.436762224111538,157.1722217616333,111.62594379799084,45.54627796364244,2.847231474929164,1.412970332273232,mp-23037,23037
1785,Li2MnO3,2.45687681,-2.180112729932951,0.0,4,1,113.11233408441824,110.35399189602937,82.98269214432524,74.13223189313919,78.55746201873222,17.193611733333334,11.63957881666667,5.554032916666666,2.356699581335446,1.412970332273232,mp-18988,18988
1786,TePdI2,3.4981582,-0.5396106562499998,0.0003222,0,0,12.36126246012926,1.0151282679942675,6.386775967725754,0.6164613796717694,3.501618673698762,157.1722217616333,111.62594379799084,45.54627796364244,2.847231474929164,1.412970332273232,mp-573321,573321
1787,VBiO4,3.55983566,-2.1346853716666665,0.00038355,0,0,128.66930134054766,126.35897524633143,47.25380279617389,43.613541987441266,45.433672391807576,157.1722217616333,111.62594379799084,45.54627796364244,2.847231474929164,1.412970332273232,mp-23506,23506
1788,CaPtO3,4.37077874,-1.9915468160000003,8.04e-05,0,0,147.3948458018983,144.9818979098394,72.10183515104018,63.13781369779356,67.61982442441686,14.044105216669335,6.735487256669335,7.308617959999999,2.7034455718582535,1.412970332273232,mp-4784,4784
1789,HfVF6,0.2827703,-3.777899545625,3.0001334,1,1,75.46519947350855,75.46519947350855,45.50785655606318,20.52967796902815,33.018767262545666,4.522645726666886,2.345598280000219,2.1770474466666667,1.4754821065220232,1.412970332273232,mp-557938,557938
1790,Na2CoO3,-0.27096431,-1.4051192763505742,3.9995296,8,4,37.46629266884828,29.191609116926642,18.875550145716677,15.295930480218503,17.08574031296759,157.1722217616333,111.62594379799084,45.54627796364244,2.847231474929164,1.412970332273232,mp-849637,849637
1791,Ti2MnRh,7.04177257,-0.5727365336494259,0.0014815,0,0,189.7642702639613,189.7642702639613,85.367440497013,77.26035189402556,81.31389619551928,157.1722217616333,111.62594379799084,45.54627796364244,2.847231474929164,1.412970332273232,mp-866218,866218
1792,BiBr3,-1.11987361,-1.172183043125,0.000460475,0,0,5.418121027988675,1.832641364405755,2.5528840867007605,0.5720740639639085,1.5624790753323345,157.1722217616333,111.62594379799084,45.54627796364244,2.847231474929164,1.412970332273232,mp-752602,752602
1793,Li4Fe3O8,1.98773953,-1.7249706382222219,11.9970649,3,1,95.76955897720023,91.96165498075128,52.53532798341005,30.00061944998463,41.26797371669734,157.1722217616333,111.62594379799084,45.54627796364244,2.847231474929164,1.412970332273232,mp-775127,775127
1794,KTiO3,-0.27689772,-2.6666543522666664,1.0034982,2,2,59.82079411929707,49.52023932105834,25.084852111972957,23.8056421651633,24.445247138568128,157.1722217616333,111.62594379799084,45.54627796364244,2.847231474929164,1.412970332273232,mp-760376,760376
1795,RbMoO3,3.45564849,-1.9528982924999994,1.0001833,1,1,158.9916805586696,158.9916805586696,100.73719836419482,99.22197956546776,99.9795889648313,157.1722217616333,111.62594379799084,45.54627796364244,2.847231474929164,1.412970332273232,mp-975292,975292
1796,ScNiGe,6.6789647,-0.8176570216666667,0.0003015,0,0,124.70921230171166,122.51839667182658,63.85033294538621,61.36977533679806,62.610054141092135,157.1722217616333,111.62594379799084,45.54627796364244,2.847231474929164,1.412970332273232,mp-7066,7066
1797,NbS,8.33719548,-1.1358976715624998,0.000507,0,0,181.50670050660568,178.13569734839805,96.48001133065641,95.06070151194092,95.77035642129866,157.1722217616333,111.62594379799084,45.54627796364244,2.847231474929164,1.412970332273232,mp-2243,2243
1798,BaSiO3,1.20292592,-3.3819829794999996,9.28e-05,0,0,56.520679970383625,54.9632506305179,30.594788161705363,28.780532941782862,29.687660551744113,157.1722217616333,111.62594379799084,45.54627796364244,2.847231474929164,1.412970332273232,mp-7339,7339
1799,Zr2InNi2,6.59128458,-0.5012553489999995,0.0007852,0,0,132.18787160782523,132.0669050025976,57.69655225382669,56.72441301254423,57.210482633185464,157.1722217616333,111.62594379799084,45.54627796364244,2.847231474929164,1.412970332273232,mp-19906,19906
1800,CrF3,-1.28428337,-3.0417904968750005,0.0,2,1,42.139353590651424,32.22150286736887,48.45851848853189,30.45784052620618,39.45817950736903,5.672233890071628,2.836714090065731,2.8355198000058977,1.6839001751902924,1.412970332273232,mp-560338,560338
1801,ScBO3,2.18601023,-3.4369411568333326,5e-08,0,0,166.71752017054564,155.07231523281254,83.3478448584318,74.04576204663974,78.69680345253576,15.508322133334673,11.604604663334671,3.9037174700000015,1.975782748684683,1.412970332273232,mp-8697,8697
1802,CrB2,8.67801104,-0.3398744427777771,1.0049079,1,1,254.7253861040776,249.86487598335137,184.41959351924032,181.28308174927858,182.85133763425944,157.1722217616333,111.62594379799084,45.54627796364244,2.847231474929164,1.412970332273232,mp-374,374
1803,LaB6,8.81891007,-0.5622244371428563,0.0007286,0,0,173.87564156011652,173.87564156011655,143.1747168559508,117.31748453727478,130.24610069661279,157.1722217616333,111.62594379799084,45.54627796364244,2.847231474929164,1.412970332273232,mp-2680,2680
1804,MnVRu2,7.33595874,-0.16488845948275888,3.9999478,4,3,230.7890191940483,230.78901919404828,101.58333020870559,86.39157174343806,93.98745097607183,157.1722217616333,111.62594379799084,45.54627796364244,2.847231474929164,1.412970332273232,mp-864983,864983
1805,Er2SiO5,2.50946713,-3.811239889375001,6.7325e-05,0,0,128.43130211487374,82.42853832639781,58.60265367834521,33.471195298470555,46.036924488407884,157.1722217616333,111.62594379799084,45.54627796364244,2.847231474929164,1.412970332273232,mp-16993,16993
1806,La5Si4,7.6946686,-0.6534642047222223,0.5667603,0,0,58.112339468443416,56.96729085228281,28.293580309001563,27.241738933963735,27.76765962148265,157.1722217616333,111.62594379799084,45.54627796364244,2.847231474929164,1.412970332273232,mp-18345,18345
1807,Tl2PtCl6,0.83894569,-1.1888422140740742,0.0001463,0,0,11.291901707564042,11.29190170756404,5.725684577533706,5.440100245501628,5.582892411517667,39.26105061333291,35.269726309999626,3.9913243033332897,1.9978298984981904,1.412970332273232,mp-27834,27834
1808,ScN,5.53041773,-2.0932449749999993,9.98e-05,0,0,199.8819802023927,199.88198020239273,155.97075878298122,155.13398329447324,155.55237103872724,157.1722217616333,111.62594379799084,45.54627796364244,2.847231474929164,1.412970332273232,mp-2857,2857
1809,Al2NiO4,5.93776711,-2.8027414935714288,2.5e-08,4,1,203.649343273889,203.3453683914231,112.44374689175896,105.67918980634785,109.0614683490534,157.1722217616333,111.62594379799084,45.54627796364244,2.847231474929164,1.412970332273232,mp-37614,37614
1810,MgPdF6,-1.51059418,-2.432859996875,0.0008031,0,0,35.10612064219061,29.235125999610908,33.09606359881267,21.724384124521777,27.410223861667223,5.555414606665494,2.4751078266654942,3.0803067799999995,1.755080277366252,1.412970332273232,mp-7921,7921
1811,CdCl2,-1.12354085,-1.49429227,0.0,0,0,14.343690001232668,4.03949686060991,7.306560890223491,-1.1312497394010992,3.087655575411196,6.75997670837928,3.512025682771261,3.2479510256080175,1.802207264886039,1.412970332273232,mp-695850,695850
1812,Ge,6.07602267,0.33948980500000037,2.72e-05,0,0,58.44279279390173,58.44279279390173,-6.0010329749881395,30.27422015131939,12.136593588165626,157.1722217616333,111.62594379799084,45.54627796364244,2.847231474929164,1.412970332273232,mp-998883,998883
1813,Mn3FeO8,1.02523517,-1.6164027486494252,12.9990782,4,2,83.58502351053488,83.29482035133456,54.89787705442533,51.000459191678814,52.949168123052075,157.1722217616333,111.62594379799084,45.54627796364244,2.847231474929164,1.412970332273232,mp-756562,756562
1814,B6P,5.21319273,-0.2902561697619045,9.065e-05,0,0,200.01284574338104,198.6460480805207,190.6875824385476,190.07218489701836,190.37988366778296,7.820676856652011,0.29314178664907,7.5275350700029415,2.7436353748271545,1.412970332273232,mp-28395,28395
1815,TiCl3,2.33881471,-2.0430437533333325,1.0001946,2,1,10.58745634608844,4.099419248082968,5.6797647114769685,1.2480572955427995,3.463911003509884,157.1722217616333,111.62594379799084,45.54627796364244,2.847231474929164,1.412970332273232,mp-567354,567354
1816,Mo2C,7.77489633,0.5448202366666676,0.0100389,0,0,212.7702461413529,212.57337122987556,-50.77631801658402,101.55739023070993,25.390536107062953,157.1722217616333,111.62594379799084,45.54627796364244,2.847231474929164,1.412970332273232,mp-571589,571589
1817,K2PtF6,-1.06482487,-2.4356593956666663,0.0046571,0,0,26.849167584002387,25.952962829133213,11.382210353616193,8.465162616321509,9.92368648496885,7.892372770022393,5.540914563355726,2.351458206666667,1.5334465124896488,1.412970332273232,mp-3821,3821
1818,NbGe2,7.57918835,-0.34335923555555564,0.007438299999999999,0,0,143.61561004916751,140.91787632928154,105.76428910471914,104.21322903728144,104.98875907100029,157.1722217616333,111.62594379799084,45.54627796364244,2.847231474929164,1.412970332273232,mp-363,363
1819,Sr5P3O12F,1.23856675,-3.4303780736111102,0.0004316,0,0,74.6814808914473,74.35532241527102,39.25113405501106,38.97778263130186,39.11445834315646,157.1722217616333,111.62594379799084,45.54627796364244,2.847231474929164,1.412970332273232,mp-6669,6669
1820,Fe3Sn2,7.76667323,-0.0017395789999994804,6.1454504,6,1,106.35639205182727,104.41539254619006,57.93057741349809,56.0853973188014,57.00798736614975,157.1722217616333,111.62594379799084,45.54627796364244,2.847231474929164,1.412970332273232,mp-27505,27505
1821,FeOF,1.00802143,-2.0233053400000003,5.000000975,8,2,163.58443842668967,160.13444610019252,75.37226436380998,68.25673946630152,71.81450191505576,157.1722217616333,111.62594379799084,45.54627796364244,2.847231474929164,1.412970332273232,mp-759914,759914
1822,HfO2,2.3199946,-3.994974886666666,0.00011715,0,0,220.66618197726848,213.45473141828097,118.30694529513153,93.02211216675433,105.66452873094292,157.1722217616333,111.62594379799084,45.54627796364244,2.847231474929164,1.412970332273232,mp-776532,776532
1823,SrZnF4,-2.08273376,-3.4183562011111106,0.0,0,0,61.031337292086214,60.54795458172409,22.23762023304278,20.395477415943738,21.31654882449326,9.770588433333337,7.498725330000004,2.2718631033333345,1.5072700830751384,1.412970332273232,mp-5078,5078
1824,Al4Bi2O9,4.48473545,-2.8578853940000006,8.05e-06,0,0,107.43116213308268,106.35737093983805,71.72194442671466,67.68103045441522,69.70148744056493,157.1722217616333,111.62594379799084,45.54627796364244,2.847231474929164,1.412970332273232,mp-23426,23426
1825,YCuSi,5.8057438,-0.6570144872222213,1.3e-06,0,0,95.41550152290961,85.53794660851412,62.37804298184154,55.85038331467104,59.11421314825629,157.1722217616333,111.62594379799084,45.54627796364244,2.847231474929164,1.412970332273232,mp-8126,8126
1826,K6Co2O7,0.48277762,-1.5400375402000008,10.0018319,18,5,34.99685111170614,34.43548342569067,17.583325013041183,17.355532570440364,17.469428791740775,157.1722217616333,111.62594379799084,45.54627796364244,2.847231474929164,1.412970332273232,mp-19141,19141
1827,MnCoSb,6.97344862,-0.16933582764367947,3.0163451,2,2,114.44214990178496,114.44214990178494,56.10668647214642,56.10638604102937,56.106536256587894,157.1722217616333,111.62594379799084,45.54627796364244,2.847231474929164,1.412970332273232,mp-5318,5318
1828,Be2CuRu,6.30120815,-0.24822863125000083,0.0001186,0,0,184.3704015020766,184.37040150152168,99.41858964370358,99.1542016801127,99.28639566190814,157.1722217616333,111.62594379799084,45.54627796364244,2.847231474929164,1.412970332273232,mp-865147,865147
1829,VNi3,7.92572361,-0.24214370500000015,0.0047169,0,0,213.12615762812493,213.0594213613572,108.77410585600802,92.82615248160401,100.80012916880602,157.1722217616333,111.62594379799084,45.54627796364244,2.847231474929164,1.412970332273232,mp-171,171
1830,AlTlF4,0.9424893,-3.2835195263888886,0.0002281,0,0,41.68071862791893,41.29124723073903,27.10892717298357,19.083762630813194,23.096344901898384,28.943462623333332,26.183912586666665,2.759550036666667,1.661189344014302,1.412970332273232,mp-3751,3751
1831,Ti2S,8.24150337,-1.254813364097223,0.0016524666666666665,0,0,147.45741033120058,147.43049045505813,86.89727038672868,82.28486230004742,84.59106634338805,157.1722217616333,111.62594379799084,45.54627796364244,2.847231474929164,1.412970332273232,mp-616559,616559
1832,Cs2LiInBr6,0.00789992,-1.7051386664195398,1.97e-05,0,0,15.596273030564276,15.596273030564276,8.985200264691692,8.639491683968192,8.812345974329942,32.969907810000024,29.44235402000002,3.5275537900000025,1.8781783168804826,1.412970332273232,mp-989405,989405
1833,Li2AlPd,4.29869488,-0.5349613141666669,0.0067151,0,0,68.43480816802649,68.43480816802652,35.44901237016254,23.178006620037415,29.31350949509998,157.1722217616333,111.62594379799084,45.54627796364244,2.847231474929164,1.412970332273232,mp-30816,30816
1834,Zn2NiRh,4.90833525,-0.34063196500000004,0.001005,0,0,156.38789030317332,156.38789030317326,67.07183660674582,47.58282528893941,57.32733094784261,157.1722217616333,111.62594379799084,45.54627796364244,2.847231474929164,1.412970332273232,mp-864654,864654
1835,Ti2MnAl,6.55356653,-0.2500238361494258,0.000174,3,3,20.9697843102354,20.9697843102354,59.29150959868639,49.408816283272046,54.35016294097922,179.56181771666704,1.3821720066666658,178.17964571000036,13.348394873916503,1.4357399999999991,mp-999052,999052
1836,ZnCO3,1.7508971,-1.822855139,0.00022035,0,0,121.42555827249268,112.34953065428942,51.166316540513385,47.40654416677616,49.286430353644775,10.826854130003113,7.414343386669778,3.4125107433333337,1.8472982280436838,1.412970332273232,mp-9812,9812
1837,Al2Mo3C,8.92279376,-0.17529243333333375,0.0014859,0,0,227.28049095648097,227.28049095648103,87.13140666822082,77.68658632982488,82.40899649902285,157.1722217616333,111.62594379799084,45.54627796364244,2.847231474929164,1.412970332273232,mp-18093,18093
1838,Na3(GePt)4,4.19679787,-0.5030804081504702,0.0233252,0,0,83.19687341252336,83.19687341252335,26.49548787441055,26.46468844991801,26.48008816216428,157.1722217616333,111.62594379799084,45.54627796364244,2.847231474929164,1.412970332273232,mp-21199,21199
1839,Lu2S3,2.35414804,-2.3488266338749995,0.00075725,0,0,77.34567786157787,77.04878210726208,31.821127220252606,30.912759228999132,31.36694322462587,157.1722217616333,111.62594379799084,45.54627796364244,2.847231474929164,1.412970332273232,mp-2826,2826
1840,MnS,6.12940565,-0.7352551605280171,4.6114945,1,1,55.92382439056861,55.92382439056861,39.34547833099814,39.34319563264814,39.34433698182314,157.1722217616333,111.62594379799084,45.54627796364244,2.847231474929164,1.412970332273232,mp-2065,2065
1841,Mn3Sn2,7.63174181,0.07212195174137861,7.895797625,12,2,76.86607555644231,73.43916527620146,55.87147530336359,54.59095531492356,55.23121530914358,157.1722217616333,111.62594379799084,45.54627796364244,2.847231474929164,1.412970332273232,mp-600428,600428
1842,SnTe,6.32206963,-0.49716179750000045,0.0,0,0,39.54834270636965,39.54834270636966,32.051754155763966,23.12933371304847,27.59054393440622,157.1722217616333,111.62594379799084,45.54627796364244,2.847231474929164,1.412970332273232,mp-1883,1883
1843,ZrZn3,3.51317401,-0.2897606862500002,1.335e-05,0,0,100.50592182417073,100.31219780125582,40.1939869629499,37.083674769540416,38.63883086624516,157.1722217616333,111.62594379799084,45.54627796364244,2.847231474929164,1.412970332273232,mp-864889,864889
1844,Li2MnO2,4.65868984,-2.02209796891954,5.0002772,1,1,104.52610454899695,104.20389811663344,63.651948568113895,56.045650683436236,59.848799625775065,13.27559292333494,9.568040320001606,3.7075526033333333,1.9255006110965878,1.412970332273232,mp-19279,19279
1845,Ba2CoO4,2.12564471,-2.326935908928572,5.000448225,20,4,60.61715606898336,56.647260070821964,26.594411390880833,15.189054823628977,20.891733107254904,157.1722217616333,111.62594379799084,45.54627796364244,2.847231474929164,1.412970332273232,mp-17478,17478
1846,Sr(MgSb)2,3.72880712,-0.8281893573333334,7.22e-05,0,0,38.77615248334382,38.5738587893975,25.84381567348847,25.092885107477546,25.46835039048301,16.354870000000613,6.20130755666728,10.153562443333334,3.186465509515729,1.412970332273232,mp-9566,9566
1847,ZnWO4,1.77753134,-2.0551608166666675,0.00014845,0,0,144.8515611450022,139.2158124839,56.71957965617559,51.33601857741968,54.02779911679764,19.410527480000002,14.278956663333334,5.131570816666667,2.2652970702904875,1.412970332273232,mp-18918,18918
1848,ZnSeO4,0.860741,-1.3502646978906252,5.97e-05,0,0,61.647127172573704,54.90492491628116,31.46057645722285,29.651655541988898,30.556115999605872,157.1722217616333,111.62594379799084,45.54627796364244,2.847231474929164,1.412970332273232,mp-754358,754358
1849,LiRu2W,6.34214948,-0.061246613333333144,0.0010392,0,0,227.01183837813446,227.01183837813443,84.75040969268603,84.749375793986,84.74989274333602,157.1722217616333,111.62594379799084,45.54627796364244,2.847231474929164,1.412970332273232,mp-861666,861666
1850,Cd(InSe2)2,2.15737725,-0.8391144884821432,0.0005687,0,0,25.72022201974008,25.213995647415217,15.774792321286998,12.598673118975688,14.186732720131342,11.663576666662186,3.9071988499955173,7.756377816666668,2.7850274355321294,0.15597029188201278,mp-568661,568661
1851,GaFe3,5.30428808,-0.09945913687499974,6.0369008,3,2,139.5464192722977,139.5464192722977,77.44957563446229,-9.430849450853973,34.00936309180416,157.1722217616333,111.62594379799084,45.54627796364244,2.847231474929164,1.412970332273232,mp-672661,672661
1852,ZnN,4.35012079,0.9892195275,0.0043661,0,0,163.98884808541877,163.9888480854188,-5.053990748973619,-138.98645186875285,-72.02022130886324,157.1722217616333,111.62594379799084,45.54627796364244,2.847231474929164,1.412970332273232,mp-999469,999469
1853,SbO2,5.56179424,-1.8374915029166665,2.775e-06,0,0,91.99084754178557,91.71913059888777,57.83269431847672,51.45192094903189,54.6423076337543,19.613889806666666,14.232513183333333,5.381376623333334,2.3197794341991513,0.6902767029242695,mp-230,230
1854,Y2Si2O7,1.87405458,-3.665785568939394,2e-07,0,0,141.45207497886736,136.42735373520867,65.27835134872224,53.379354860148126,59.32885310443518,9.252419893333334,6.013244003333334,3.2391758900000007,1.7997710659970063,1.412970332273232,mp-5652,5652
1855,Li3Co,0.91522896,0.3288236162499998,0.9994255,1,1,26.04026295083483,25.546627611208073,13.863856334832004,8.058255758857836,10.96105604684492,157.1722217616333,111.62594379799084,45.54627796364244,2.847231474929164,1.412970332273232,mp-976017,976017
1856,Si2Pd9,5.63991372,-0.45199598954545456,0.011383425,0,0,163.3573543018547,163.19861773413305,40.45681707384465,34.23445155398194,37.345634313913294,157.1722217616333,111.62594379799084,45.54627796364244,2.847231474929164,1.412970332273232,mp-505071,505071
1857,TiS,8.48757435,-1.5804151365624992,0.007237133333333333,0,0,129.10626736059888,127.45907256396124,79.83770761122327,73.55996071199482,76.69883416160904,157.1722217616333,111.62594379799084,45.54627796364244,2.847231474929164,1.412970332273232,mp-557762,557762
1858,MnAlRu2,7.83489379,-0.41414462948275954,2.0607695,3,2,218.07298246583298,218.07298246583292,130.73400992231362,124.14626517876438,127.44013755053899,157.1722217616333,111.62594379799084,45.54627796364244,2.847231474929164,1.412970332273232,mp-864980,864980