,formula_pretty,efermi,formation_energy_per_atom,total_magnetization_normalized_formula_units,num_magnetic_sites,num_unique_magnetic_sites,k_voigt,k_reuss,g_voigt,g_reuss,g_vrh,e_total,e_ionic,e_electronic,n,e_ij_max,material_id,b
1628,ScNiSb,7.3709767,-0.963593911666667,0.0010216,0,0,103.62492754241902,103.62492754241903,66.3886056157587,66.29356748685265,66.34108655130568,22.44178192375077,4.099960397084501,18.34182152666627,4.28273528561669,0.18306094129098108,mp-3432,3432
1629,TiAl2O5,3.7115943,-3.4414870010416685,1.26e-05,0,0,185.9559712559538,180.7784055390352,96.47451634562428,90.92459448850937,93.69955541706682,157.1722217616333,111.62594379799084,45.54627796364244,2.847231474929164,1.412970332273232,mp-4930,4930
1630,Sc2O3,2.40988698,-3.9687326407500008,0.00024135,0,0,167.5755719170084,167.57557191700838,79.57224289685404,79.1936907915624,79.38296684420823,157.1722217616333,111.62594379799084,45.54627796364244,2.847231474929164,1.412970332273232,mp-216,216
1631,BeSO4,-0.4996558,-2.3026629346875,0.0003097,0,0,38.41097925111402,33.396148623686784,36.888431209525145,33.04537170499181,34.96690145725847,4.448884256666667,2.0587624200000003,2.3901218366666668,1.5460018876659456,0.1909338473136704,mp-5046,5046
1632,MnCu2GeS4,4.87580437,-0.6509170988038795,4.9999597,6,2,70.14578358796467,69.84561280584764,28.071548343093347,26.78068509993446,27.426116721513903,11.487061026666666,2.019199523333333,9.467861503333333,3.0769890320463174,0.2735821019365119,mp-20474,20474
1633,Ca3GeN,3.30763647,-0.8072252419999998,0.0141544,0,0,54.632578415760406,54.63257841576039,36.33259141931618,35.07125192371804,35.70192167151711,157.1722217616333,111.62594379799084,45.54627796364244,2.847231474929164,1.412970332273232,mp-11822,11822
1634,Ba2MnSe3,2.43917068,-1.7726311841603806,5.000199275,4,1,35.781607181887466,35.38731957863285,20.232624667434767,19.453796515736748,19.84321059158576,157.1722217616333,111.62594379799084,45.54627796364244,2.847231474929164,1.412970332273232,mp-18513,18513
1635,ZrRu,6.29246315,-0.6574592274999986,0.0,0,0,185.33991831589026,185.3399183158903,83.7277480063253,78.18664165824012,80.95719483228271,157.1722217616333,111.62594379799084,45.54627796364244,2.847231474929164,1.412970332273232,mp-214,214
1636,VO2,2.25687245,-2.460264975000001,1.000324375,4,2,166.79806088769118,165.54515981328333,62.687166010329044,54.98614213481998,58.83665407257451,157.1722217616333,111.62594379799084,45.54627796364244,2.847231474929164,1.412970332273232,mp-541404,541404
1637,VCu3Se4,2.79078136,-0.7233818674218746,0.0004896,0,0,35.93866001094309,35.93866001094309,21.10401918317239,20.270036856806193,20.68702801998929,8.95057231333333,0.7428640233333331,8.207708289999998,2.8649098223155294,0.16232999999999997,mp-21855,21855
1638,LiSn4Rh,7.790676,-0.356311629722222,0.0001146,0,0,63.797954985937345,63.456514337598506,41.198468266102616,38.44706934572714,39.822768805914876,157.1722217616333,111.62594379799084,45.54627796364244,2.847231474929164,1.412970332273232,mp-16648,16648
1639,Cd(NO3)2,-0.73255358,-0.9971092073611109,0.0227305875,0,0,24.30367282844439,24.228285705169863,11.408113596169892,10.269679428664759,10.838896512417325,157.1722217616333,111.62594379799084,45.54627796364244,2.847231474929164,1.412970332273232,mp-27198,27198
1640,Eu(CdSb)2,4.09938412,-0.5685649009999999,6.965938,1,1,38.79071838473348,38.160775622624655,19.855223026795393,18.762736723646327,19.30897987522086,157.1722217616333,111.62594379799084,45.54627796364244,2.847231474929164,1.412970332273232,mp-19774,19774
1641,Cr2GaC,6.56023066,-0.13068466812499935,0.0167566,0,0,180.94483388570916,179.0424954412819,116.51091136746534,115.00850480445574,115.75970808596054,157.1722217616333,111.62594379799084,45.54627796364244,2.847231474929164,1.412970332273232,mp-20197,20197
1642,ScCo3C,6.08719646,-0.2949182640000004,0.0249706,0,0,214.47880644685318,214.47880644685324,101.29454889581365,96.24786250682297,98.77120570131831,157.1722217616333,111.62594379799084,45.54627796364244,2.847231474929164,1.412970332273232,mp-10270,10270
1643,HfVGe,6.34589742,-0.6075226783333333,0.0011112,0,0,155.11470106627635,154.41015825235587,89.46007065013379,50.340843838748405,69.9004572444411,157.1722217616333,111.62594379799084,45.54627796364244,2.847231474929164,1.412970332273232,mp-10312,10312
1644,AlN,5.87272095,-1.5630532525000005,0.0002381,0,0,194.66721403087982,194.66721403087985,134.35957427711503,107.3222331842911,120.84090373070306,8.588689600000002,3.9707537199999994,4.617935880000004,2.1489383146102643,0.4951099999999992,mp-1700,1700
1645,YSi3Ni,7.44764005,-0.6465678813333333,0.00150175,0,0,121.43719709321653,117.52133933669477,86.25804372818384,85.05966122166792,85.65885247492588,157.1722217616333,111.62594379799084,45.54627796364244,2.847231474929164,1.412970332273232,mp-10284,10284
1646,SnS,3.4998455,-0.4107973890625001,0.0002162,0,0,37.90819141309284,37.908191413092965,-6.838200482768037,-1.7991063556142004,-4.318653419191119,157.1722217616333,111.62594379799084,45.54627796364244,2.847231474929164,1.412970332273232,mp-10013,10013
1647,Mo2SeS3,2.14099689,-1.1382496969531246,1.64e-05,0,0,37.663307237198104,1.6108298384710802,25.644678369003874,1.4278797282825364,13.536279048643205,157.1722217616333,111.62594379799084,45.54627796364244,2.847231474929164,1.412970332273232,mp-1027890,1027890
1648,NaZnN,2.1223838,-0.11018717385057523,1.4e-06,0,0,74.23090596843642,59.160668277150386,37.67929245028932,28.173733127988434,32.926512789138876,157.1722217616333,111.62594379799084,45.54627796364244,2.847231474929164,1.412970332273232,mp-1029357,1029357
1649,CdSbAu,5.07787864,-0.18169250999999953,0.0002229,0,0,70.54013524686438,70.54013524686437,14.450755434951528,13.478218801558288,13.964487118254908,157.1722217616333,111.62594379799084,45.54627796364244,2.847231474929164,1.412970332273232,mp-16246,16246
1650,Sc2Al,4.79259376,-0.350947593333333,0.17519165,0,0,70.52365844689791,70.047783043767,45.29506313091746,43.63655502971986,44.465809080318664,157.1722217616333,111.62594379799084,45.54627796364244,2.847231474929164,1.412970332273232,mp-11220,11220
1651,CrCo3,6.44391362,0.06294242875000045,0.3619255,4,2,258.5448710355093,258.5448710355093,156.15158826615414,143.0772261849742,149.61440722556415,157.1722217616333,111.62594379799084,45.54627796364244,2.847231474929164,1.412970332273232,mp-1008280,1008280
1652,YAu,4.68767102,-0.8646292083333327,7.25e-05,0,0,86.38813910944552,86.38813910944553,32.66959213358244,32.54652356325239,32.60805784841742,157.1722217616333,111.62594379799084,45.54627796364244,2.847231474929164,1.412970332273232,mp-11261,11261
1653,NbN,7.95066188,-1.0426084225000007,0.001406,0,0,304.66996840856063,304.66996840856063,155.2914730868941,105.08766450299724,130.18956879494567,157.1722217616333,111.62594379799084,45.54627796364244,2.847231474929164,1.412970332273232,mp-1580,1580
1654,Sc2BC2,5.48724372,-0.5701258538333335,0.000233,0,0,138.8374440867884,137.26295975614812,90.25072590629149,51.1295292396333,70.6901275729624,157.1722217616333,111.62594379799084,45.54627796364244,2.847231474929164,1.412970332273232,mp-10343,10343
1655,CuSiO3,3.31474131,-2.249616821000001,1.0055817,2,1,41.84483955833034,12.885457522239095,34.04521526031349,8.018526807839686,21.031871034076588,157.1722217616333,111.62594379799084,45.54627796364244,2.847231474929164,1.412970332273232,mp-16053,16053
1656,Hf2S,6.51272561,-1.1958842743750004,0.00859545,0,0,132.74766083246115,130.05699952777965,76.29106276034321,71.53525121372178,73.9131569870325,157.1722217616333,111.62594379799084,45.54627796364244,2.847231474929164,1.412970332273232,mp-10000,10000
1657,PrB6,7.04511457,-0.4832376585714278,0.0004887,0,0,173.92242587895203,173.92242587895203,130.4568869556966,100.36022064350286,115.40855379959973,157.1722217616333,111.62594379799084,45.54627796364244,2.847231474929164,1.412970332273232,mp-12762,12762
1658,CN2,3.60516332,0.3733575583333331,5.5e-06,0,0,155.4423263125538,10.506719159631782,175.36081350562205,10.465921678157123,92.91336759188958,4.280106006666666,0.6950711733333331,3.585034833333333,1.8934188214268213,0.03042999999999999,mp-1019086,1019086
1659,YGa2Ni,4.81188196,-0.654518641666666,1.1e-06,0,0,95.71447692141753,90.36511367800877,52.509141880997355,45.97333483011002,49.24123835555369,157.1722217616333,111.62594379799084,45.54627796364244,2.847231474929164,1.412970332273232,mp-11444,11444
1660,K2CO3,0.14327266,-2.1103544468333326,0.0002727,0,0,33.94269724726824,26.582525873868445,9.055503272848943,-42.69591508766022,-16.820205907405636,157.1722217616333,111.62594379799084,45.54627796364244,2.847231474929164,1.412970332273232,mp-10662,10662
1661,Sm2S3,3.89522921,-2.367298272375001,0.000525675,0,0,77.18291926079877,76.40840855714578,37.11616926040429,35.945125790480404,36.53064752544235,157.1722217616333,111.62594379799084,45.54627796364244,2.847231474929164,1.412970332273232,mp-1403,1403
1662,Be2Mo,5.87645317,-0.31991838583333393,0.003714175,0,0,198.74047733681223,198.74011935801016,150.03205091063919,149.93905908526216,149.98555499795066,157.1722217616333,111.62594379799084,45.54627796364244,2.847231474929164,1.412970332273232,mp-1677,1677
1663,SiPt2,7.764209,-0.7137078466666663,1.73e-05,0,0,205.5847655489333,201.0072781445136,71.76587227276725,61.58136146739331,66.67361687008028,157.1722217616333,111.62594379799084,45.54627796364244,2.847231474929164,1.412970332273232,mp-1299,1299
1664,PdF3,-1.62743939,-1.5492320518749996,0.33510493333333335,1,2,47.73201422547744,35.92718069597485,25.82499610229025,15.569420069766947,20.6972080860286,157.1722217616333,111.62594379799084,45.54627796364244,2.847231474929164,1.412970332273232,mp-14112,14112
1665,La2Hf2O7,4.151237,-4.042177046363636,0.0008851,0,0,164.8165474486595,164.81654744865952,89.33448010471805,89.11629150804127,89.22538580637966,30.785793839999982,26.189836643333322,4.595957196666666,2.1438183683947356,1.412970332273232,mp-12533,12533
1666,Na6MoN4,2.50858137,-0.35654627811912254,0.0003758,0,0,53.330281432053184,53.00290005444722,36.922672614403474,36.412886996013384,36.667779805208426,11.535791296666668,6.8635505100000005,4.672240786666667,2.161536672524125,1.412970332273232,mp-1029542,1029542
1667,Ga2HgTe4,2.95221106,-0.5424630871428572,0.0007469,0,0,24.268962627785285,24.00653788661276,16.338886275289674,14.31864412134729,15.328765198318482,16.561761659987205,4.491183479987204,12.070578180000004,3.4742737629611176,0.10861654965881005,mp-16337,16337
1668,Hf6NiSb2,6.79038414,-0.5367185944444451,0.0002429,0,0,126.78166078422626,125.75229944339227,71.51117281264654,69.76748309323952,70.63932795294303,157.1722217616333,111.62594379799084,45.54627796364244,2.847231474929164,1.412970332273232,mp-15297,15297
1669,ZrPd,4.96423761,-0.6519607825000007,0.0001815,0,0,138.24871141128472,129.81956326845835,42.95022028063936,22.594453415769888,32.772336848204624,157.1722217616333,111.62594379799084,45.54627796364244,2.847231474929164,1.412970332273232,mp-13495,13495
1670,NbNi3,7.34496715,-0.2926187387499999,0.0007286,0,0,210.89866936082979,210.67630206047545,80.02096616580043,74.04635750282245,77.03366183431143,157.1722217616333,111.62594379799084,45.54627796364244,2.847231474929164,1.412970332273232,mp-1451,1451
1671,RbFe2Se3,2.04628259,-0.7422370907552077,5.55748725,4,1,18.164611507021434,13.326942715765353,8.430727684199805,5.393011163228032,6.911869423713918,157.1722217616333,111.62594379799084,45.54627796364244,2.847231474929164,1.412970332273232,mp-15120,15120
1672,NiSnRh2,8.36733945,-0.25159581625000094,1.0055467,1,1,193.7451204608088,193.74512046080832,59.37119072242658,-14.842601075575981,22.264294823425303,157.1722217616333,111.62594379799084,45.54627796364244,2.847231474929164,1.412970332273232,mp-11519,11519
1673,Sn2S3,4.78514416,-0.6977255598749998,0.0020817,0,0,20.363798835467694,13.47670097176896,12.933811174041349,9.58795912515296,11.260885149597154,157.1722217616333,111.62594379799084,45.54627796364244,2.847231474929164,1.412970332273232,mp-1509,1509
1674,MgF2,-0.92629432,-3.829413601666667,0.0,0,0,95.00719358397522,94.17494991665569,55.323305383552416,47.85107538923824,51.58719038639533,5.103417449999999,3.0505807266666665,2.0528367233333333,1.4327723906236236,1.412970332273232,mp-1249,1249
1675,Fe,6.26720914,0.09779316000000016,0.0086799,0,0,294.4407807771443,293.70401226883274,185.53726276703327,183.4794065095984,184.50833463831583,157.1722217616333,111.62594379799084,45.54627796364244,2.847231474929164,1.412970332273232,mp-136,136
1676,CsAlO2,2.49624856,-2.849798509482759,1.945e-05,0,0,92.88616797417734,92.88616797417737,54.86354336091469,40.51513417993825,47.689338770426474,15.167506443349074,11.941690063349116,3.2258163799999573,1.7960557842116034,1.412970332273232,mp-14069,14069
1677,TlAsPd5,5.52042976,-0.3547938483333338,1.64e-05,0,0,136.2800087430623,136.2589133491877,51.15417747350458,47.001522782441356,49.077850127972965,157.1722217616333,111.62594379799084,45.54627796364244,2.847231474929164,1.412970332273232,mp-11873,11873
1678,CsPbBr3,0.73487826,-1.627910923086207,0.00013985,0,0,17.210806446677662,16.36862279658885,8.18228297933979,6.035454146409752,7.108868562874772,157.1722217616333,111.62594379799084,45.54627796364244,2.847231474929164,1.412970332273232,mp-1014168,1014168
1679,NbSn2,7.72272406,-0.13910880166666573,0.000120375,0,0,96.14779074172449,95.88547460079522,49.77139647476966,48.099242227390505,48.93531935108008,157.1722217616333,111.62594379799084,45.54627796364244,2.847231474929164,1.412970332273232,mp-1046,1046
1680,Te2Mo3W(Se2S)2,3.14081456,-0.8796047871354169,0.0003358,0,0,31.244599779654866,2.7429190682522906,21.923871670573096,2.3280957975397114,12.125983734056403,157.1722217616333,111.62594379799084,45.54627796364244,2.847231474929164,1.412970332273232,mp-1030827,1030827
1681,Zr(NiP)2,9.70630783,-0.8397089933333334,1.7e-06,0,0,177.40065086012817,177.3986957024972,61.88976892432602,52.75055140811581,57.320160166220916,157.1722217616333,111.62594379799084,45.54627796364244,2.847231474929164,1.412970332273232,mp-10259,10259
1682,TiO2,5.5610368,-3.1997306077777785,9.66e-05,0,0,250.27314530800243,250.27314530800234,120.35912915916374,48.116335949977156,84.23773255457044,157.1722217616333,111.62594379799084,45.54627796364244,2.847231474929164,1.412970332273232,mp-1008677,1008677
1683,Cd2Hg,2.70188665,0.015051371666666776,0.0010369,0,0,39.527436559575015,35.174980021528334,14.910162102258035,11.314664639124912,13.112413370691474,157.1722217616333,111.62594379799084,45.54627796364244,2.847231474929164,1.412970332273232,mp-11299,11299
1684,HfAlCu2,7.52937969,-0.3285648850000005,0.0004683,0,0,134.71177223650614,134.7117722365061,56.44199155288131,49.44969928000485,52.94584541644308,157.1722217616333,111.62594379799084,45.54627796364244,2.847231474929164,1.412970332273232,mp-10887,10887
1685,B,6.15041714,0.0,2.38e-05,0,0,211.79337237558585,210.90459635136244,204.1401323054326,195.50785278205862,199.8239925437456,9.52007649666667,0.13876186999999982,9.38131462666667,3.0628931791145884,1.412970332273232,mp-160,160
1686,YMgCu4,5.3485692,-0.23412124277777777,0.0004134,0,0,92.04632059341917,92.04632059341917,43.49356318838537,41.70318500320169,42.59837409579353,157.1722217616333,111.62594379799084,45.54627796364244,2.847231474929164,1.412970332273232,mp-13172,13172
1687,Sc3BPb,5.18934514,-0.5203631508333331,0.004628,0,0,79.3211644455473,79.3211644455473,66.41918524473073,65.14040371825784,65.77979448149429,157.1722217616333,111.62594379799084,45.54627796364244,2.847231474929164,1.412970332273232,mp-10133,10133
1688,MoS2,4.59678991,-1.2002825070833332,0.00011395,0,0,49.85907347386369,1.0652758212481637,34.25169733251493,0.6007476413913918,17.42622248695316,157.1722217616333,111.62594379799084,45.54627796364244,2.847231474929164,1.412970332273232,mp-1018809,1018809
1689,KPt2Se3,2.36525427,-0.8798517033385416,0.0002047,0,0,29.88680295329977,21.689537414513868,15.5932343626635,9.787657308297065,12.690445835480283,12.978492693333331,3.127364786666666,9.851127906666667,3.1386506506246703,1.412970332273232,mp-14796,14796
1690,Ca2Cu,2.80008992,-0.11127504499999989,0.000801225,0,0,24.934275299276496,24.670468798072992,12.680306905229312,12.036152394062391,12.358229649645851,157.1722217616333,111.62594379799084,45.54627796364244,2.847231474929164,1.412970332273232,mp-12614,12614
1691,ScCuSi,6.87106112,-0.6450518072222222,0.00021576666666666666,0,0,112.42996253632091,111.83952503225352,77.53614298372733,74.80896646077345,76.1725547222504,157.1722217616333,111.62594379799084,45.54627796364244,2.847231474929164,1.412970332273232,mp-15322,15322
1692,V3S4,6.74420759,-1.2803014046428578,1.9445328,3,2,99.48557523117572,96.83886667513198,71.63632547473914,69.11360348888424,70.37496448181169,157.1722217616333,111.62594379799084,45.54627796364244,2.847231474929164,1.412970332273232,mp-1081,1081
1693,Mn5Si3,7.92480785,-0.32188884745689883,11.48630325,10,2,148.58857984453894,147.56038952403267,60.30278921007444,32.23101409198496,46.2669016510297,157.1722217616333,111.62594379799084,45.54627796364244,2.847231474929164,1.412970332273232,mp-1111,1111
1694,HfN,5.31495488,-1.655843422500002,0.0026727,0,0,196.59702621928105,196.59702621928102,87.50887385439643,86.36608299375727,86.93747842407686,157.1722217616333,111.62594379799084,45.54627796364244,2.847231474929164,1.412970332273232,mp-1001916,1001916
1695,Lu4C7,4.00163089,-0.3257143722727278,0.0012133,0,0,128.37488629579263,124.42558351993374,77.30515340017834,73.51566964699249,75.41041152358542,157.1722217616333,111.62594379799084,45.54627796364244,2.847231474929164,1.412970332273232,mp-15178,15178
1696,AlAgSe2,2.18218391,-0.8552725878385417,8.49e-05,0,0,52.01230702140647,51.757034721004366,19.014794326631463,16.85143176158965,17.933113044110556,9.700932379998548,2.6557224566652144,7.045209923333334,2.6542814325789443,0.22472085420975957,mp-14091,14091
1697,NaAgO,1.13856073,-0.7549204027394634,0.0001875,0,0,58.54058671614143,58.54058671614143,24.827476880451908,17.553104206814258,21.190290543633083,157.1722217616333,111.62594379799084,45.54627796364244,2.847231474929164,1.412970332273232,mp-1008866,1008866
1698,C,9.28649654,0.3331968825000011,0.0,0,0,403.40341053302495,401.97127673866777,426.61794837198687,413.37582048932177,419.9968844306543,157.1722217616333,111.62594379799084,45.54627796364244,2.847231474929164,1.412970332273232,mp-1008395,1008395
1699,SiS2,0.24099452,-1.01128210875,3.05e-05,0,0,11.06445623465493,-0.027013679080471982,7.06385290875291,-0.21276331020363354,3.4255447992746384,4.0154922833409055,0.8753044300081742,3.140187853332731,1.7720575197585238,1.412970332273232,mp-1602,1602
1700,Li6CrN4,1.79096497,-0.8149817509090909,0.0003448,0,0,85.73934460635343,84.95647977758058,71.9217152772483,71.59017272793496,71.75594400259163,9.060614803333332,3.4894627233333324,5.57115208,2.360328807602873,1.412970332273232,mp-1029498,1029498
1701,Cu2SiS3,5.68700842,-0.6909523690625002,0.0007593,0,0,79.45994647254994,79.30799681973608,38.405211255136805,33.6610415356609,36.03312639539885,157.1722217616333,111.62594379799084,45.54627796364244,2.847231474929164,1.412970332273232,mp-15895,15895
1702,LiF,-2.20746757,-3.165944597916666,0.0003778,0,0,69.88150378551063,69.88150378551062,51.7390887545229,50.14779158312968,50.94344016882629,8.689130619999325,6.65347868666615,2.0356519333331753,1.4267627459858823,1.412970332273232,mp-1138,1138
1703,SbTePd,6.79937149,-0.5776493791666665,0.001690625,0,0,80.65300515616006,80.65300515616008,32.02941060538223,30.785781043540165,31.407595824461197,157.1722217616333,111.62594379799084,45.54627796364244,2.847231474929164,1.412970332273232,mp-10850,10850
1704,Y2C,3.24914565,-0.29089405444444455,0.2988962,0,0,63.024232597798296,59.65361470424564,38.2928586705126,26.122517939091324,32.20768830480196,157.1722217616333,111.62594379799084,45.54627796364244,2.847231474929164,1.412970332273232,mp-1334,1334