,formula_pretty,efermi,formation_energy_per_atom,total_magnetization_normalized_formula_units,num_magnetic_sites,num_unique_magnetic_sites,k_voigt,k_reuss,g_voigt,g_reuss,g_vrh,e_total,e_ionic,e_electronic,n,e_ij_max,material_id,b
390,Bi2S3,4.14431336,-0.6439653858749999,8.3375e-05,0,0,26.51230423200542,17.36948892875698,15.485868213376731,-9.056071094623334,3.2148985593766986,63.63719022,51.175375370000005,12.461814850000001,3.5301295797746577,1.412970332273232,mp-22856,22856
391,NaMgTl2,4.44085869,-0.10053934080459781,0.0166211,0,0,24.06247764399657,24.062477643996573,12.790871893122977,12.301915644167083,12.54639376864503,157.1722217616333,111.62594379799084,45.54627796364244,2.847231474929164,1.412970332273232,mp-865110,865110
392,Bi2Te3,5.7877754,-0.23967567400000006,0.0001251,0,0,39.41254700435567,38.720672450377904,7.304095797386357,-345.8349000820744,-169.26540214234402,157.1722217616333,111.62594379799084,45.54627796364244,2.847231474929164,1.412970332273232,mp-568390,568390
393,Zn3Pt,4.31381723,-0.3996057350000002,5.5e-06,0,0,129.00084472152648,128.84384617558987,53.72761472588482,-3.1098548363328997,25.30887994477596,157.1722217616333,111.62594379799084,45.54627796364244,2.847231474929164,1.412970332273232,mp-865355,865355
394,Mo,7.92572158,0.41146009999999933,0.0009616,0,0,243.08289586953308,243.0828958695331,-45.95688400398386,-11.773247334281514,-28.865065669132687,157.1722217616333,111.62594379799084,45.54627796364244,2.847231474929164,1.412970332273232,mp-8637,8637
395,Co2P,8.39020234,-0.5233345102777776,0.2954556,8,2,231.64307546473435,225.22442846840283,82.54572834133202,75.18644104936564,78.86608469534883,157.1722217616333,111.62594379799084,45.54627796364244,2.847231474929164,1.412970332273232,mp-22204,22204
396,Cr5Si3,8.99749921,-0.28065263937499907,0.0091832,0,0,224.1231571406555,223.37955568207872,133.6939807663101,131.98840286942033,132.8411918178652,157.1722217616333,111.62594379799084,45.54627796364244,2.847231474929164,1.412970332273232,mp-7506,7506
397,Bi2AuO5,4.75445022,-1.2483981093750005,0.00156665,0,0,124.71046172238545,118.0530021176625,52.447215937086526,48.324726576190116,50.38597125663832,157.1722217616333,111.62594379799084,45.54627796364244,2.847231474929164,1.412970332273232,mp-618309,618309
398,NbS,7.90156033,-1.1529600040624999,1.855e-05,0,0,181.99002314245786,178.5179919841994,106.48779785347399,87.95642162069666,97.22210973708533,157.1722217616333,111.62594379799084,45.54627796364244,2.847231474929164,1.412970332273232,mp-647,647
399,Zr,4.24653968,0.0745623799999997,0.0372375,0,0,89.09561047902454,89.09561047902474,17.186166471300762,-5.282276389421029,5.951945040939867,157.1722217616333,111.62594379799084,45.54627796364244,2.847231474929164,1.412970332273232,mp-41,41
400,Li3B7O12,0.30216401,-2.817122843371212,0.00151635,0,0,69.06416043316547,57.18058968675372,44.072917353904764,30.446743617986645,37.259830485945706,157.1722217616333,111.62594379799084,45.54627796364244,2.847231474929164,1.412970332273232,mp-16828,16828
401,LiI,-0.08651139,-1.422324364166667,0.0001927,0,0,14.863195755677152,14.857543025477646,5.250837404614743,5.180784323719318,5.215810864167031,5.0437373166332415,1.8992264666332421,3.14451085,1.7732768678353643,0.19352191271275165,mp-570935,570935
402,Mn2AlCr,7.46499702,-0.16105888646551758,1.0053253,3,2,194.43882130815263,194.43882130815265,104.30796114147155,100.24708987500105,102.2775255082363,157.1722217616333,111.62594379799084,45.54627796364244,2.847231474929164,1.412970332273232,mp-864988,864988
403,LiAlO2,4.01296527,-3.067125373333333,7.9e-06,0,0,147.1238444086851,136.89256181182074,116.33332085430438,91.75857731398881,104.0459490841466,12.775382866679715,9.68338426001305,3.091998606666666,1.7584079750349935,1.412970332273232,mp-8001,8001
404,Sr3(AlSn)2,4.02105703,-0.5009250985714289,0.0037161,0,0,36.90504448324708,35.90154680834343,25.492161926441124,24.53023778626764,25.01119985635438,157.1722217616333,111.62594379799084,45.54627796364244,2.847231474929164,1.412970332273232,mp-7376,7376
405,Al2PdRu,8.66805636,-0.8092256212499995,0.0001038,0,0,177.62027318420826,177.6202731842083,84.96544775601791,78.58221766974559,81.77383271288176,157.1722217616333,111.62594379799084,45.54627796364244,2.847231474929164,1.412970332273232,mp-862715,862715
406,NiAsSe,6.31662975,-0.44739250578124984,0.001352375,0,0,101.00128973358434,101.00128973358434,55.18104187840371,53.29543378252729,54.2382378304655,157.1722217616333,111.62594379799084,45.54627796364244,2.847231474929164,1.412970332273232,mp-10846,10846
407,Sn,8.14302899,0.035511604999999946,0.0001176,0,0,45.72021257549048,45.701888956601614,21.634014342668674,21.11216216440003,21.373088253534352,157.1722217616333,111.62594379799084,45.54627796364244,2.847231474929164,1.412970332273232,mp-84,84
408,Ca(BC)2,4.51458841,-0.3319165896666661,0.000323,0,0,165.04140733802296,104.4605764550312,110.4264421362874,78.97236119829093,94.69940166728917,23.52003267404662,7.6747737040466175,15.845258970000003,3.980610376562871,1.412970332273232,mp-10289,10289
409,VO2F,-2.47393762,-2.404014553125001,8e-07,0,0,19.408471560391956,5.388309699014305,11.873395641509614,-2217.2855000097406,-1102.7060521841156,5.97910269,2.7201190833333335,3.2589836066666664,1.8052655224832348,1.7246440253389241,mp-752960,752960
410,CaGaPt,4.49883097,-0.9194786258333334,0.0011218,0,0,83.15205374798671,82.03839369727591,25.32694578143818,22.28358630802982,23.805266044734,157.1722217616333,111.62594379799084,45.54627796364244,2.847231474929164,1.412970332273232,mp-31152,31152
411,YAl3Ni2,6.95556471,-0.6608140966666665,0.0011913333333333333,0,0,113.28023492052428,112.74297891474718,68.51783101195382,67.67894015999804,68.09838558597593,157.1722217616333,111.62594379799084,45.54627796364244,2.847231474929164,1.412970332273232,mp-5063,5063
412,SrNiF6,-0.82022125,-2.6134841089583336,0.0009436,0,0,66.44004926036888,62.220854777860474,23.84939923358502,21.252582244797427,22.550990739191224,15.728329180005607,11.186673426672272,4.541655753333334,2.131116081618581,1.412970332273232,mp-555718,555718
413,YPPt,6.5710997,-1.3521641366666657,0.0003646,0,0,134.6422375950284,119.8219174005418,50.08197138016021,48.367851775518965,49.22491157783959,157.1722217616333,111.62594379799084,45.54627796364244,2.847231474929164,1.412970332273232,mp-16304,16304
414,GaN,1.13984366,-0.30326086125000007,0.00013895,0,0,96.64361631315587,4.345554776263562,48.87229745788721,-2.158086291340451,23.357105583273377,157.1722217616333,111.62594379799084,45.54627796364244,2.847231474929164,1.412970332273232,mp-1007824,1007824
415,As2PdO6,4.34759816,-1.3724840166666665,1.999885,1,1,152.33634640906268,131.2680773891457,75.8518636677791,68.1765461935058,72.01420493064245,157.1722217616333,111.62594379799084,45.54627796364244,2.847231474929164,1.412970332273232,mp-6915,6915
416,Tl2PdSe2,4.20064336,-0.5587231252708328,3.25e-05,0,0,34.966677334648416,32.722669179100265,9.42220454486156,5.250017413632597,7.336110979247078,157.1722217616333,111.62594379799084,45.54627796364244,2.847231474929164,1.412970332273232,mp-28954,28954
417,LiVF3,1.93182127,-3.021265433166666,2.999996,2,1,57.499893725838646,56.54503993245559,21.571341867622223,7.851974772987455,14.711658320304839,157.1722217616333,111.62594379799084,45.54627796364244,2.847231474929164,1.412970332273232,mp-752607,752607
418,MnInNi2,7.9551134,-0.08737496448275905,4.1250437,3,2,132.52749470012068,132.52749470012077,49.2029642870062,10.931371247551336,30.067167767278768,157.1722217616333,111.62594379799084,45.54627796364244,2.847231474929164,1.412970332273232,mp-22731,22731
419,WO3,0.51682502,-2.179956578125001,0.000624175,0,0,53.282444785609414,46.928082059114665,109.20561626709787,79.91975909405643,94.56268768057714,157.1722217616333,111.62594379799084,45.54627796364244,2.847231474929164,1.412970332273232,mp-1408708,1408708
420,CuO,4.61792002,-0.9425302874999995,0.0006916,0,0,153.10829676489934,137.92895503554607,34.6090179345973,15.889577567068569,25.249297750832934,157.1722217616333,111.62594379799084,45.54627796364244,2.847231474929164,1.412970332273232,mp-704645,704645
421,CaC2,0.87935338,0.013914356666667516,0.0002089,0,0,54.72209354380731,51.93204109175538,22.499256232749378,7.808649976527689,15.153953104638534,157.1722217616333,111.62594379799084,45.54627796364244,2.847231474929164,1.412970332273232,mp-1575,1575
422,Y4C5,4.28801012,-0.32534918962962917,0.00338715,0,0,101.60852510082155,100.01548834256072,55.28246466123378,48.120033678943685,51.70124917008873,157.1722217616333,111.62594379799084,45.54627796364244,2.847231474929164,1.412970332273232,mp-9459,9459
423,Zn(CuO2)2,1.93726755,-1.129661277142857,0.0288007,0,0,87.81604484490072,52.83211368457651,39.94358826483366,28.48638072670238,34.21498449576802,12.713408163333334,3.4418539100000003,9.271554253333333,3.0449227007156248,1.412970332273232,mp-1047156,1047156
424,LiMnO2,3.01860704,-2.1243801603160932,1.15e-06,4,2,111.58502208332601,105.91641261531898,62.347370762364875,42.6753944507945,52.51138260657969,17.21823682,12.033204926666665,5.185031893333334,2.2770665105203522,2.508949845946726,mp-755562,755562
425,BeB2,6.7721012,0.1202282555555551,0.0004941,0,0,203.1735188405146,171.3485711920203,127.51962907882866,-0.624789523808729,63.447419777509964,157.1722217616333,111.62594379799084,45.54627796364244,2.847231474929164,1.412970332273232,mp-1009823,1009823
426,MoS2,5.60191871,-0.934014822916667,0.000180525,0,0,65.08001326920322,65.08001326920322,33.3257774138385,33.324750279655944,33.32526384674722,157.1722217616333,111.62594379799084,45.54627796364244,2.847231474929164,1.412970332273232,mp-1405065,1405065
427,CaO,2.25697064,-3.3060156124999995,5.46e-05,0,0,105.00705821692847,105.00705821692847,74.18629254687416,74.15995114203035,74.17312184445225,16.47135604666664,12.687349153333313,3.7840068933333257,1.9452523983620547,1.412970332273232,mp-2605,2605
428,YSnPd2,6.48056477,-0.873195970416667,0.0001592,0,0,107.75645501896017,107.75645501896017,25.40808073777109,24.6228825918878,25.015481664829444,157.1722217616333,111.62594379799084,45.54627796364244,2.847231474929164,1.412970332273232,mp-5538,5538
429,BeAg3,3.19998754,0.22045598625000018,0.0014335,0,0,99.91510274658899,99.91510274658883,30.14212990527884,1.749932987389842,15.94603144633434,157.1722217616333,111.62594379799084,45.54627796364244,2.847231474929164,1.412970332273232,mp-984719,984719
430,Ca2Mn3O8,2.12352509,-2.416973564137931,8.9999799,3,2,123.16645439620262,121.97860496927552,59.57682216340039,53.67311836391568,56.62497026365803,13.490127146666666,7.725070813333333,5.765056333333333,2.4010531717005628,1.412970332273232,mp-18893,18893
431,AlTlF4,0.89822793,-3.2816646272222223,0.0,0,0,61.21252295738626,56.258999095436366,30.508193795238945,19.26825329937354,24.888223547306243,96.91156986,94.20616207666666,2.7054077833333334,1.6448123854510985,1.412970332273232,mp-5606,5606
432,Sc2Si2O7,2.66465528,-3.6074464795454544,1.34e-05,0,0,160.5716882383818,157.32485799340662,74.27541592243318,68.85578547148154,71.56560069695736,157.1722217616333,111.62594379799084,45.54627796364244,2.847231474929164,1.412970332273232,mp-5594,5594
433,ScHg,4.33561716,-0.429523455,0.000609,0,0,75.83338143960185,75.83338143960182,34.265645050329084,23.73155930254033,28.99860217643471,157.1722217616333,111.62594379799084,45.54627796364244,2.847231474929164,1.412970332273232,mp-11471,11471
434,ZrIN,2.77572061,-1.6203751316666661,5.7e-06,0,0,35.79246687719612,2.741132471365411,26.717117627576794,2.8720207176442907,14.794569172610542,16.19308409,10.328985626666666,5.864098463333334,2.421590069217607,1.412970332273232,mp-23052,23052
435,KCuF3,0.79053481,-2.3596459841,0.0525521,0,0,75.14038127694243,75.05160667223277,29.48518595241416,25.714251028980435,27.5997184906973,157.1722217616333,111.62594379799084,45.54627796364244,2.847231474929164,1.412970332273232,mp-669347,669347
436,Y2Co3Si5,7.25002773,-0.7336032363333324,0.1709732,2,2,140.40496992618617,138.82033577406057,65.59436252173055,45.94257775581214,55.76847013877134,157.1722217616333,111.62594379799084,45.54627796364244,2.847231474929164,1.412970332273232,mp-20618,20618
437,TlCuCl3,2.80017594,-1.0633776886666666,0.0017657,0,0,39.414722071055124,39.41472207105512,17.69282200084858,17.325764214370558,17.50929310760957,157.1722217616333,111.62594379799084,45.54627796364244,2.847231474929164,1.412970332273232,mp-998147,998147
438,YCo5,4.36452317,-0.10450343694444442,7.1900299,6,3,149.06647765784572,147.05403445320562,46.87296660688842,44.79972822548864,45.83634741618853,157.1722217616333,111.62594379799084,45.54627796364244,2.847231474929164,1.412970332273232,mp-2827,2827
439,AgPbBrO,1.66943469,-1.0098659010416666,7.775e-05,0,0,18.212134472151963,2.4366344834429974,7.2176750845548785,-2.70446875755347,2.2566031635007042,157.1722217616333,111.62594379799084,45.54627796364244,2.847231474929164,1.412970332273232,mp-559470,559470
440,NdI3,-0.23708341,-1.6904022437500004,0.0005562,0,0,4.93448650091756,0.6018003397346934,2.8598544590702173,0.20481480964052187,1.5323346343553697,157.1722217616333,111.62594379799084,45.54627796364244,2.847231474929164,1.412970332273232,mp-864617,864617
441,ScCoC2,6.4122506,-0.32310355374999933,2.89e-05,0,0,201.1745833949244,200.1526428471301,109.20953776705234,96.44220753631396,102.82587265168314,157.1722217616333,111.62594379799084,45.54627796364244,2.847231474929164,1.412970332273232,mp-615314,615314
442,VOF2,-1.25335799,-2.79801721625,0.999993325,1,1,55.74929552763497,15.557835180527212,35.53256604558483,8.244835360098245,21.888700702841536,8.562403633333334,5.07567792,3.4867257133333336,1.8672776208516326,4.913221618062837,mp-752974,752974
443,LiVF4,-0.68366158,-3.1454685672222227,1.9999815,2,1,39.919148862601624,22.146773654095355,20.282226175490088,2.0536127043022607,11.167919439896174,157.1722217616333,111.62594379799084,45.54627796364244,2.847231474929164,1.412970332273232,mp-756012,756012
444,MnV2O6,1.80516989,-2.3207056286590038,5.0025956,3,3,55.85464903776873,30.66019277687582,32.61519617054335,21.44776963874856,27.031482904645955,157.1722217616333,111.62594379799084,45.54627796364244,2.847231474929164,1.412970332273232,mp-541825,541825
445,Mg3Hg,3.736429,-0.12143638791666674,0.00012951666666666665,0,0,40.59899320338802,40.189048900948485,10.28272559944167,3.2429192205501165,6.762822409995893,157.1722217616333,111.62594379799084,45.54627796364244,2.847231474929164,1.412970332273232,mp-569103,569103
446,NbRhO4,3.72411534,-2.2124864491666663,1.8e-06,0,0,214.01196743023092,213.82006085886903,95.8460960976908,69.18825205605314,82.51717407687198,46.681479413333335,35.80788429,10.873595123333331,3.2975134758380187,1.710265,mp-756638,756638
447,Si3N4,9.02607295,-0.5558529364285718,1.003384525,2,4,221.20223155791206,221.10906507066858,133.708544894196,131.55342271053516,132.63098380236556,157.1722217616333,111.62594379799084,45.54627796364244,2.847231474929164,1.412970332273232,mp-603694,603694
448,CoAsRh,7.32345967,-0.3091041583333336,0.35657655,4,1,195.66632902749132,193.8285531817261,63.33377866755862,62.21246713738869,62.77312290247366,157.1722217616333,111.62594379799084,45.54627796364244,2.847231474929164,1.412970332273232,mp-22546,22546
449,TlSbS2,3.59589489,-0.5752353286458334,6.75e-06,0,0,15.822998845767652,11.266970794900496,8.413960061438706,3.741252111282803,6.077606086360754,157.1722217616333,111.62594379799084,45.54627796364244,2.847231474929164,1.412970332273232,mp-676540,676540
450,SbCl3,-0.83979765,-1.3292732150000002,0.000380075,0,0,2.329300830721722,1.0872216825634344,1.4530811897670832,0.7417439167396501,1.0974125532533667,7.672612660000001,4.720154573333334,2.9524580866666668,1.7182718314244305,1.412970332273232,mp-22872,22872
451,NaBPt3,5.63597083,-0.4390379971436779,6.2e-06,0,0,156.151170686486,153.37547290509332,52.374388119793956,19.44314246845178,35.908765294122865,157.1722217616333,111.62594379799084,45.54627796364244,2.847231474929164,1.412970332273232,mp-28614,28614
452,WN2,-1.03221097,-0.44791515000000004,0.0001229,0,0,121.36032969173503,121.35937491328882,26.2007488027043,24.958916941192353,25.579832871948327,22.940330759999995,13.324123853333333,9.616206906666667,3.101000952380806,0.14722203775250506,mp-754628,754628
453,CoBW,7.59706448,-0.4329216988888878,1.0675e-05,0,0,334.85699171022236,334.73440018148546,197.3740249830016,189.2502061971555,193.31211559007855,157.1722217616333,111.62594379799084,45.54627796364244,2.847231474929164,1.412970332273232,mp-22759,22759
454,Li4TiO4,0.03754136,-2.7075447612962957,0.0,0,0,80.14887482416819,79.37379996014073,43.3147022794343,42.02257321163143,42.66863774553286,7.982529229999983,4.736155166666657,3.2463740633333273,1.801769703189985,1.412970332273232,mp-9172,9172
455,Cr2GeC,7.98717728,-0.07586479374999833,0.00438815,0,0,202.34424288173776,202.26240388334773,82.33291559595544,81.07062167383606,81.70176863489576,157.1722217616333,111.62594379799084,45.54627796364244,2.847231474929164,1.412970332273232,mp-19821,19821
456,Mn2CrO4,3.12479738,-2.189480853694581,0.0,6,6,153.23754298322382,152.8769722574135,59.05786388859065,51.20902937893793,55.133446633764294,11.667674380000001,5.642391833333334,6.025282546666666,2.4546450958675607,1.412970332273232,mp-34139,34139
457,ZnAgF3,-0.73546975,-2.0018450968333332,7.7e-06,0,0,80.59923849314477,80.59923849314477,25.483974947878018,23.874440306763496,24.679207627320757,157.1722217616333,111.62594379799084,45.54627796364244,2.847231474929164,1.412970332273232,mp-14099,14099
458,LiAl2Rh,6.7005114,-0.7078913733333341,1.71e-05,0,0,118.57504740439244,118.5750474043924,68.59223236701895,44.96366825708369,56.77795031205132,157.1722217616333,111.62594379799084,45.54627796364244,2.847231474929164,1.412970332273232,mp-30821,30821
459,C,9.88552296,0.1458170587500014,0.001462425,0,0,435.6642203024888,435.6587632816052,524.9965243028553,520.8474221412879,522.9219732220715,157.1722217616333,111.62594379799084,45.54627796364244,2.847231474929164,1.412970332273232,mp-611426,611426
460,YInPt2,6.49674026,-0.9520740079166661,0.0002531,0,0,121.76511591448583,120.13558910680791,37.57822748236131,35.9628410405824,36.77053426147185,157.1722217616333,111.62594379799084,45.54627796364244,2.847231474929164,1.412970332273232,mp-510441,510441
461,Nb5Si3,7.00100528,-0.6115732818749997,0.00031075,0,0,191.7151465330495,189.9771104961708,107.03104118058737,103.11509087725595,105.07306602892166,157.1722217616333,111.62594379799084,45.54627796364244,2.847231474929164,1.412970332273232,mp-567996,567996
462,MnBe2,5.42205514,-0.2503022593103452,0.283662125,4,1,163.28707908022056,163.03304591267243,162.1120889441066,161.84289947835245,161.97749421122953,157.1722217616333,111.62594379799084,45.54627796364244,2.847231474929164,1.412970332273232,mp-11270,11270
463,AlPt,8.3920993,-1.0414113487499996,2.275e-06,0,0,184.17776005848327,184.1777600584833,73.6860496367829,73.48782604407471,73.5869378404288,157.1722217616333,111.62594379799084,45.54627796364244,2.847231474929164,1.412970332273232,mp-10904,10904
464,WOF4,-3.55742831,-2.625639788333334,0.0,0,0,5.415461651692107,4.400456557713752,3.097990232139681,1.9585341475616493,2.528262189850665,157.1722217616333,111.62594379799084,45.54627796364244,2.847231474929164,1.412970332273232,mp-754003,754003
465,SnO,6.30205676,-1.6297024024999995,1.65e-06,0,0,43.93483817032427,20.615024574510635,29.08242201968163,11.097493228878376,20.089957624280004,18.664626913333336,11.373192913333334,7.291434,2.7002655424976263,1.412970332273232,mp-2097,2097
466,MnP4,8.5080001,-0.3599639572528737,0.0028789,0,0,137.95948533931755,135.51743231144602,118.46682518600757,111.80382974166979,115.13532746383868,157.1722217616333,111.62594379799084,45.54627796364244,2.847231474929164,1.412970332273232,mp-571193,571193
467,MoS2,0.86172926,-1.2007899920833327,2.52e-05,0,0,34.07045811614281,1.559124382217118,23.498357322909154,0.3839583782140796,11.941157850561616,157.1722217616333,111.62594379799084,45.54627796364244,2.847231474929164,1.412970332273232,mp-1025874,1025874