,formula_pretty,efermi,formation_energy_per_atom,total_magnetization_normalized_formula_units,num_magnetic_sites,num_unique_magnetic_sites,k_voigt,k_reuss,g_voigt,g_reuss,g_vrh,e_total,e_ionic,e_electronic,n,e_ij_max,material_id,b
3094,FeCuO2,2.94427383,-1.316044345,5.00000575,8,3,154.14719029787767,133.33810896607017,59.60839785767471,41.11408236667706,50.361240112175885,157.1722217616333,111.62594379799084,45.54627796364244,2.847231474929164,1.412970332273232,mp-505110,505110
3095,FeSe2,5.97109343,-0.6697212132291662,5.8e-06,0,0,117.70506304932617,117.52059218131875,94.23772409515183,89.34296475081405,91.79034442298294,36.83439955333333,10.133355586666665,26.701043966666663,5.167305290639083,1.412970332273232,mp-760,760
3096,Mn2NiO4,3.66762443,-1.728142116551725,9.9981073,6,3,160.84448725044592,160.822147131675,50.85345133070999,799.6606505760868,425.2570509533984,157.1722217616333,111.62594379799084,45.54627796364244,2.847231474929164,1.412970332273232,mp-622693,622693
3097,Li2GaPd,3.31257964,-0.5510639185416664,0.0068776,0,0,66.81462244470896,66.81462244470895,34.60962415113109,16.151719414532685,25.380671782831886,157.1722217616333,111.62594379799084,45.54627796364244,2.847231474929164,1.412970332273232,mp-3201,3201
3098,SiC,8.13338723,-0.20346579599999898,1.94e-05,0,0,213.20763614642794,213.19982793478772,191.52190487743493,181.98765150026512,186.75477818885003,10.485148066922262,3.406484940255035,7.078663126667227,2.6605757133874666,0.1312992326044688,mp-568619,568619
3099,La,7.95404305,0.0,0.037213925,0,0,24.9090618486931,24.858714992895447,16.222098752404175,15.953024274542257,16.087561513473215,157.1722217616333,111.62594379799084,45.54627796364244,2.847231474929164,1.412970332273232,mp-26,26
3100,AgCl,1.49474467,-0.7338783983333332,0.0001499,0,0,42.627551690755126,42.62755169075513,6.983620569507893,6.850882182282244,6.917251375895068,11.41491176275674,5.661743849423442,5.753167913333299,2.3985762262920267,1.412970332273232,mp-22922,22922
3101,AlPt3,8.17470697,-0.6806201999999999,0.0030436,0,0,225.2304609427992,225.2304609427992,93.17109906657555,89.22439690263498,91.19774798460526,157.1722217616333,111.62594379799084,45.54627796364244,2.847231474929164,1.412970332273232,mp-188,188
3102,Ba(BiPd)2,4.59164882,-0.6424738150000003,3.675e-05,0,0,59.948986265944036,59.9363485295561,20.06923726468236,19.09826867859405,19.583752971638205,157.1722217616333,111.62594379799084,45.54627796364244,2.847231474929164,1.412970332273232,mp-571599,571599
3103,Zn2Mo3O8,4.31877994,-1.862555258846154,5.9999954,6,1,137.25338014827082,122.41943943265957,50.92566072690795,36.312251265493764,43.61895599620085,157.1722217616333,111.62594379799084,45.54627796364244,2.847231474929164,1.412970332273232,mp-19216,19216
3104,LaRu2,8.58311035,-0.13194248833333214,0.000191,0,0,143.39714995030891,143.39714995042868,4.945607832181364,-125.81901330555024,-60.43670273668444,157.1722217616333,111.62594379799084,45.54627796364244,2.847231474929164,1.412970332273232,mp-2019,2019
3105,Mn3AlC,7.07086969,-0.1919325907586213,3.8990883,3,1,215.33420376645438,215.3342037664544,132.55359937658116,124.65449588913071,128.60404763285595,157.1722217616333,111.62594379799084,45.54627796364244,2.847231474929164,1.412970332273232,mp-4593,4593
3106,Co3Pt,6.02744082,-0.0946174399999995,5.67303305,8,2,212.2142033305643,211.8301837751616,92.45080960888838,89.33225243186874,90.89153102037855,157.1722217616333,111.62594379799084,45.54627796364244,2.847231474929164,1.412970332273232,mp-865193,865193
3107,Ba(NO2)2,0.15843534,-1.476955540714286,0.000328075,0,0,29.692647533929915,28.31117490197482,12.570150622493165,12.066030503991948,12.318090563242556,7.105245140000001,4.459776456666667,2.6454686833333336,1.626489681287076,0.04748999999999998,mp-27897,27897
3108,MgO,1.64574067,-2.967507278333333,3.8599999999999996e-05,0,0,115.71184011624288,114.98979014544162,49.39530308017744,49.17139077979746,49.28334692998745,6.012030413334092,2.9832177233340924,3.02881269,1.7403484392500257,1.5766846884206376,mp-775808,775808
3109,Sn4Pt,8.11553878,-0.2810124909999999,0.0005186,0,0,59.5333964524923,58.91398850818934,31.55031885139295,26.5852799204459,29.067799385919425,157.1722217616333,111.62594379799084,45.54627796364244,2.847231474929164,1.412970332273232,mp-20662,20662
3110,Mn2Sb,7.6480097,-0.037662943620689525,1.2389653,4,2,86.39711120011081,86.38360458772439,33.358037291515686,19.276036806995283,26.317037049255482,157.1722217616333,111.62594379799084,45.54627796364244,2.847231474929164,1.412970332273232,mp-20664,20664
3111,TiFe2Si,8.38954649,-0.6748644958333347,0.0020928,0,0,228.85162329365747,228.85162329364175,145.88628102448314,145.45635381655538,145.67131742051924,66.98636455421752,28.674063039669118,38.3123015145484,6.189693168045441,1.412970332273232,mp-866141,866141
3112,LiFe2O3,4.84553914,-1.6963743413888892,0.0589079,3,5,129.96420685357833,125.75494709167427,67.91672503579238,60.5335259117245,64.22512547375844,157.1722217616333,111.62594379799084,45.54627796364244,2.847231474929164,1.412970332273232,mp-756381,756381
3113,MgCuBi,5.57433668,-0.10897807666666637,0.0009904,0,0,57.02316984731408,57.02316984731409,25.713527873156558,24.43040312388707,25.071965498521813,157.1722217616333,111.62594379799084,45.54627796364244,2.847231474929164,1.412970332273232,mp-30449,30449
3114,CuBr2,1.15731301,-0.6638177249999998,0.8298588,1,1,11.946465470478955,1.5322481691702117,6.457191758252702,2.299332567500841,4.378262162876772,157.1722217616333,111.62594379799084,45.54627796364244,2.847231474929164,1.412970332273232,mp-23219,23219
3115,TePd,7.00689549,-0.5763426250000006,0.00130155,0,0,98.35597059148496,98.06470675599581,21.281817768126434,19.07867475219161,20.180246260159024,157.1722217616333,111.62594379799084,45.54627796364244,2.847231474929164,1.412970332273232,mp-564,564
3116,CuWO4,3.14494604,-1.7008668033333336,1.00024805,2,1,122.81412641801974,50.7102497769718,55.803269417197,36.38281853139524,46.09304397429612,157.1722217616333,111.62594379799084,45.54627796364244,2.847231474929164,1.412970332273232,mp-22773,22773
3117,MgTiRh2,6.51348289,-0.7717169633333336,0.0010434,0,0,163.01392238913368,163.0139223891337,77.25856637640867,77.08078860647281,77.16967749144074,157.1722217616333,111.62594379799084,45.54627796364244,2.847231474929164,1.412970332273232,mp-864919,864919
3118,ZnGeN2,4.156138,-0.3733232431250002,6.375e-06,0,0,163.14077392802204,163.07727142886077,96.24646583883718,93.38845920654121,94.8174625226892,10.950906123333334,4.932479633333333,6.01842649,2.4532481509215494,0.5940438695079684,mp-2979,2979
3119,Hf4N3,6.89429634,-1.6624212221428576,0.0068944,0,0,225.11811204164812,224.78593363893637,107.10777773459701,97.31714479025277,102.21246126242488,157.1722217616333,111.62594379799084,45.54627796364244,2.847231474929164,1.412970332273232,mp-32994,32994
3120,K3AgSn3Se8,1.72999196,-0.9169989779611114,0.00036515,0,0,15.619699460512793,14.180661125633183,8.137067438503204,6.826360624406028,7.481714031454616,157.1722217616333,111.62594379799084,45.54627796364244,2.847231474929164,1.412970332273232,mp-571594,571594
3121,SrZn5,2.59484852,-0.21532471777777795,2.98e-05,0,0,53.491713814826056,52.46981349418015,31.664076038243635,29.15637420910332,30.410225123673477,157.1722217616333,111.62594379799084,45.54627796364244,2.847231474929164,1.412970332273232,mp-638,638
3122,C,3.60144124,0.010051490000000385,1.3e-06,0,0,223.96649182888606,5.945509310382753,175.63506795637605,1.6409862501050065,88.63802710324053,157.1722217616333,111.62594379799084,45.54627796364244,2.847231474929164,1.412970332273232,mp-568806,568806
3123,LiAlSiO4,0.49773828,-3.209992046071428,0.0,0,0,113.68917528187842,113.11154543754526,47.51149432793515,43.36660144541674,45.439047886675944,157.1722217616333,111.62594379799084,45.54627796364244,2.847231474929164,1.412970332273232,mp-6326,6326
3124,CsCoCl3,1.65595707,-1.5571491215862068,2.99988865,2,1,15.62558333431647,14.538943583966256,6.920178465940198,4.914592988845578,5.9173857273928885,157.1722217616333,111.62594379799084,45.54627796364244,2.847231474929164,1.412970332273232,mp-504708,504708
3125,ScSi,6.35413905,-0.8011338575,0.0031763,0,0,101.44600489296997,101.20760845990698,74.43878703493262,66.0675776039326,70.25318231943261,157.1722217616333,111.62594379799084,45.54627796364244,2.847231474929164,1.412970332273232,mp-9969,9969
3126,AlN,6.08101269,-1.5843970050000005,5.935e-05,0,0,194.8077834851407,194.00325513780706,121.89716359608747,121.16608839355636,121.53162599482192,8.731928620001746,4.18939553333508,4.542533086666666,2.131321910614787,1.6756785281491275,mp-661,661
3127,LiNiO2,3.40030072,-1.489747370833334,0.9999802,3,3,117.89715582222385,114.1922029250603,56.63485158536821,-15.214238376918415,20.710306604224897,157.1722217616333,111.62594379799084,45.54627796364244,2.847231474929164,1.412970332273232,mp-866271,866271
3128,KBaPO4,1.02250514,-3.043846705190476,0.000950225,0,0,53.843283001772114,53.380498712990246,26.355162621114225,25.88727469856135,26.121218659837787,157.1722217616333,111.62594379799084,45.54627796364244,2.847231474929164,1.412970332273232,mp-6812,6812
3129,In,6.1618835,0.03681058000000004,6.29e-05,0,0,33.79231063218887,32.5171862105359,5.352951991449066,4.456719037646035,4.904835514547551,157.1722217616333,111.62594379799084,45.54627796364244,2.847231474929164,1.412970332273232,mp-85,85
3130,Nb2C,5.56328921,-0.44846452333333414,0.0002471,0,0,219.29125495779996,219.27622914432607,105.65937570877013,67.87805405375198,86.76871488126105,157.1722217616333,111.62594379799084,45.54627796364244,2.847231474929164,1.412970332273232,mp-2318,2318
3131,ScFeGe,5.87106871,-0.5547345277777782,1.9407492333333334,3,1,101.49331094533153,101.49329634376087,55.629115110197425,50.324093576615184,52.97660434340631,157.1722217616333,111.62594379799084,45.54627796364244,2.847231474929164,1.412970332273232,mp-9549,9549
3132,ScGeAu,6.38729631,-0.7224387733333332,0.0013241,0,0,102.31052129709866,97.81203223745057,45.34649958934405,42.77775300677923,44.06212629806164,157.1722217616333,111.62594379799084,45.54627796364244,2.847231474929164,1.412970332273232,mp-9350,9350
3133,Cu3SbSe4,3.94948139,-0.41711439242187476,1.87e-05,0,0,58.44075044882883,58.39274457288796,21.788657423792365,19.44530746451289,20.616982444152626,157.1722217616333,111.62594379799084,45.54627796364244,2.847231474929164,1.412970332273232,mp-9814,9814
3134,EuFeO3,3.06003637,-2.4259913980000007,11.0000224,8,2,157.0454268771658,155.9417262113318,71.06132787639241,69.149243371983,70.1052856241877,157.1722217616333,111.62594379799084,45.54627796364244,2.847231474929164,1.412970332273232,mp-504703,504703
3135,NaCu3O4,2.17388442,-1.0886326608189654,0.0008576,0,0,75.794179035357,18.650965587830086,27.245222489305945,9.559757808238691,18.40249014877232,157.1722217616333,111.62594379799084,45.54627796364244,2.847231474929164,1.412970332273232,mp-756095,756095
3136,CaIn2Cu,6.51197055,-0.30681315625000005,0.0002423,0,0,48.79631240737617,48.00852755947915,32.006728719240435,29.959715211723026,30.983221965481732,157.1722217616333,111.62594379799084,45.54627796364244,2.847231474929164,1.412970332273232,mp-19968,19968
3137,TiCoSi,7.50112178,-0.7894698094444443,0.001352925,0,0,181.35681883446395,180.21975441212783,101.62230757738135,98.28587457783956,99.95409107761046,157.1722217616333,111.62594379799084,45.54627796364244,2.847231474929164,1.412970332273232,mp-21306,21306
3138,NbAlNi2,7.38486478,-0.43092735250000036,0.002365,0,0,180.57861081236805,180.57861081236817,55.6941738290569,33.935021358876625,44.81459759396677,157.1722217616333,111.62594379799084,45.54627796364244,2.847231474929164,1.412970332273232,mp-4813,4813
3139,Nd,3.43408126,0.13995944000000016,0.5567615,1,1,33.15240577136486,33.15240577136485,-3.984124364179295,23.074163560419656,9.54501959812018,157.1722217616333,111.62594379799084,45.54627796364244,2.847231474929164,1.412970332273232,mp-4,4
3140,GeO2,-1.33778176,-2.076483917499999,0.0,0,0,23.389025450737435,23.38870491861023,28.479677231775252,22.46764392957342,25.473660580674334,5.705280343333333,2.799390783333333,2.90588956,1.7046669938729968,0.024155,mp-7812,7812
3141,SrPbF6,0.80604027,-2.7995722033333337,6.98e-05,0,0,57.45579404377247,56.44611706984001,16.76674995494536,61.13150646571498,38.94912821033017,157.1722217616333,111.62594379799084,45.54627796364244,2.847231474929164,1.412970332273232,mp-504677,504677
3142,Bi,4.77146009,0.0,0.0001038,0,0,32.24359529807498,26.74819723453985,15.027264078254552,10.676399640238321,12.851831859246436,157.1722217616333,111.62594379799084,45.54627796364244,2.847231474929164,1.412970332273232,mp-23152,23152
3143,HfNi2Sn,8.50510691,-0.49088848625000026,0.0012263,0,0,151.6657639503228,151.66576395032288,51.78474167408903,31.149280659803242,41.467011166946136,157.1722217616333,111.62594379799084,45.54627796364244,2.847231474929164,1.412970332273232,mp-4828,4828
3144,Bi,5.13407806,0.049545179999999966,0.000492,0,0,46.56051909826344,46.56051909826345,20.94164635879912,7.77752479435682,14.35958557657797,157.1722217616333,111.62594379799084,45.54627796364244,2.847231474929164,1.412970332273232,mp-567597,567597
3145,MgCl2,-0.78157398,-2.2654612233333338,0.0,0,0,17.231800654398103,2.032917398829314,11.04625671667777,0.6101122686803347,5.828184492679052,5.061384686663808,2.476172836663808,2.5852118500000003,1.6078593999476447,1.412970332273232,mp-23210,23210
3146,Mn4Al11,7.87858887,-0.27699086678161017,1.0030549,4,2,125.88093140479447,124.94253278860289,86.24915842345062,83.56217365629999,84.90566603987531,157.1722217616333,111.62594379799084,45.54627796364244,2.847231474929164,1.412970332273232,mp-2856,2856
3147,CaLaMn2O6,5.27812533,-2.771157318836207,7.01683975,8,1,153.84630129381947,152.71309857898083,65.08987618859148,61.23370335159629,63.16178977009388,157.1722217616333,111.62594379799084,45.54627796364244,2.847231474929164,1.412970332273232,mp-21507,21507
3148,AlSbO4,6.3855935,-2.5433669,0.0,0,0,203.89165536593617,191.42506318934696,131.29070680509687,107.22450909237729,119.25760794873707,11.300302923333335,7.234467586666669,4.065835336666667,2.016391662516652,1.412970332273232,mp-676861,676861
3149,PbO,4.32820593,-1.46797853,0.0,0,0,23.079335579098526,-0.8642253593171115,16.102842211382356,-6.256297216557414,4.923272497412471,157.1722217616333,111.62594379799084,45.54627796364244,2.847231474929164,1.412970332273232,mp-19921,19921
3150,InCuSe2,3.8499083,-0.6686129199218751,0.00015805,0,0,52.92826017416998,52.90312748986671,23.411372363487676,19.859612606465845,21.63549248497676,19.872124393304727,3.390681516638059,16.481442876666666,4.059734335725266,0.21382700272910402,mp-22811,22811
3151,Li3(CuO2)2,1.88637752,-1.5650319644444437,1.0036493,2,2,80.25550464018163,59.53467395212501,39.96941339795037,26.48225531245352,33.22583435520195,157.1722217616333,111.62594379799084,45.54627796364244,2.847231474929164,1.412970332273232,mp-25317,25317
3152,Li3CrS4,0.21979927,-1.1725387603125004,1.0005004,1,1,12.129436534433417,12.129436534433419,7.399672109514537,4.5870155067255745,5.993343808120056,157.1722217616333,111.62594379799084,45.54627796364244,2.847231474929164,1.412970332273232,mp-753982,753982
3153,LiFeF4,-2.17046274,-2.731539334722223,5.00006385,2,1,63.8744069328112,61.05105244804498,-64.1727014567836,2.963700517517645,-30.604500469632978,157.1722217616333,111.62594379799084,45.54627796364244,2.847231474929164,1.412970332273232,mp-755146,755146
3154,MgCO3,3.24948523,-2.070847423999999,0.0,0,0,97.45299458079181,76.41605614466738,12.73765323774173,38.35001359846872,25.543833418105226,157.1722217616333,111.62594379799084,45.54627796364244,2.847231474929164,1.412970332273232,mp-546079,546079
3155,CO2,-3.62484515,-1.7591410033333332,0.0,0,0,4.404307364290531,4.357292144705391,2.302547286191008,0.35312534186885713,1.3278363140299325,2.1625257699999993,0.19719858333333337,1.9653271866666662,1.401901275649133,1.412970332273232,mp-644607,644607
3156,Eu(CdP)2,4.17161435,-0.5953988343333328,7.0009624,1,1,55.64916467618063,54.71060395724225,35.106290297607345,34.650285662277916,34.87828797994263,157.1722217616333,111.62594379799084,45.54627796364244,2.847231474929164,1.412970332273232,mp-22609,22609
3157,BeBr2,-1.96833381,-1.399303275,5.6e-05,0,0,3.4222079254220805,-1.3901958925762663,3.4953992651511263,1.3070897038349927,2.4012444844930596,3.2323721834621595,0.7178471367953123,2.514525046666847,1.5857254007762023,1.412970332273232,mp-30139,30139
3158,Rb,0.02574645,0.024408722499999886,0.0120498,0,0,2.754364926113992,2.7542680753178037,0.8433280027355617,0.5664305891590361,0.7048792959472989,157.1722217616333,111.62594379799084,45.54627796364244,2.847231474929164,1.412970332273232,mp-867126,867126
3159,BiI,2.53182522,-0.4839245299999999,3.5525e-05,0,0,5.870397556697089,1.6455556361737471,3.5491349008328488,1.1922264191178908,2.3706806599753696,157.1722217616333,111.62594379799084,45.54627796364244,2.847231474929164,1.412970332273232,mp-568388,568388
3160,InI,3.52492482,-0.6561656649999996,0.001956,0,0,11.981443206865306,11.903707880500724,7.869307929827627,6.207621483909632,7.03846470686863,43.326694138885166,34.86844140888138,8.458252730003787,2.9083075370400198,1.412970332273232,mp-23202,23202
3161,Sc2Co3Si,6.21407361,-0.5999702424999995,0.00043075,0,0,154.85759197882896,154.8464669662941,81.21636855364851,76.12622370631897,78.67129612998374,157.1722217616333,111.62594379799084,45.54627796364244,2.847231474929164,1.412970332273232,mp-27319,27319
3162,TiRu,7.89910168,-0.7631157591666664,0.0028936,0,0,212.02556484399534,212.02556484399537,110.40638102573843,103.2687932343046,106.83758713002152,157.1722217616333,111.62594379799084,45.54627796364244,2.847231474929164,1.412970332273232,mp-592,592
3163,GaSe,1.32283105,-0.8270154786718749,0.000261125,0,0,22.99479711058646,3.997548805395014,15.712245954976932,2.1620772681289298,8.93716161155293,8.608604860032868,2.118059190048087,6.490545669984779,2.547654935422923,1.412970332273232,mp-1943,1943
3164,NaNbSe2,4.74149725,-1.2385208865598054,2.69e-05,0,0,60.89331170199469,60.45461953849083,38.85298876410498,37.89871377414717,38.37585126912607,14.409966443334957,2.0573695566682875,12.352596886666667,3.514626137538197,1.412970332273232,mp-7939,7939
3165,VAu2,5.77206965,0.01198314666666711,1.85194435,2,1,128.03091014543932,125.67979154860589,48.403375298736215,11.437281543758704,29.92032842124746,157.1722217616333,111.62594379799084,45.54627796364244,2.847231474929164,1.412970332273232,mp-30423,30423
3166,Y(SiRu)2,6.97383098,-0.8880547473333337,0.0001503,0,0,151.30417779259474,149.7223059720198,81.45058243733997,78.61265907591911,80.03162075662954,157.1722217616333,111.62594379799084,45.54627796364244,2.847231474929164,1.412970332273232,mp-568673,568673
3167,ZrNi,5.6123994,-0.4557337100000005,0.00462725,0,0,139.02264805523555,137.9617842264293,44.85741108783038,25.131125259001774,34.994268173416074,157.1722217616333,111.62594379799084,45.54627796364244,2.847231474929164,1.412970332273232,mp-556,556
3168,Te2Pd,6.70355921,-0.6155769733333329,4.83e-05,0,0,54.66244490993082,50.67400405864416,23.202123866746152,20.420406018365068,21.81126494255561,157.1722217616333,111.62594379799084,45.54627796364244,2.847231474929164,1.412970332273232,mp-782,782
3169,Li3SbS4,-0.67710703,-1.0288408678125003,0.0001701,0,0,10.752607384166826,10.752607384166824,7.0996440665171345,5.446202322326895,6.272923194422015,4.466046463333334,1.4747687133333331,2.9912777500000005,1.729531078067116,0.005270000000000001,mp-850275,850275
3170,PbN,5.68234393,0.6616204649999995,4.195e-05,0,0,72.8862365626572,71.20934367464363,10.609282654008945,-16.771183177114185,-3.08095026155262,157.1722217616333,111.62594379799084,45.54627796364244,2.847231474929164,1.412970332273232,mp-973785,973785
3171,Hf2Ni,5.57000881,-0.34002011666666593,2.155e-05,0,0,131.36768825399832,127.97655668637421,22.988295985071872,17.551886594898722,20.270091289985295,157.1722217616333,111.62594379799084,45.54627796364244,2.847231474929164,1.412970332273232,mp-861,861