,formula_pretty,efermi,formation_energy_per_atom,total_magnetization_normalized_formula_units,num_magnetic_sites,num_unique_magnetic_sites,k_voigt,k_reuss,g_voigt,g_reuss,g_vrh,e_total,e_ionic,e_electronic,n,e_ij_max,material_id,b
2399,Ca(NiP)2,8.05160588,-0.8513654033333331,1.34e-05,0,0,114.29816067518806,114.20665654605146,75.81848133680782,72.35355964437788,74.08602049059286,157.1722217616333,111.62594379799084,45.54627796364244,2.847231474929164,1.412970332273232,mp-4064,4064
2400,ZnCuPd2,4.22779871,-0.4042525499999998,8.6e-05,0,0,145.9973264942132,145.99732649421327,61.194682619579275,41.892550359173455,51.54361648937636,157.1722217616333,111.62594379799084,45.54627796364244,2.847231474929164,1.412970332273232,mp-864661,864661
2401,CaPt2,5.93905539,-0.9320685116666668,0.01543935,0,0,132.03474455943717,132.03474455943717,60.587530595673094,57.54568668544054,59.06660864055682,157.1722217616333,111.62594379799084,45.54627796364244,2.847231474929164,1.412970332273232,mp-842,842
2402,HgI2,-0.22868646,-0.5458711250000001,0.0003642,0,0,3.011750063419787,2.4551546884388156,2.076492087250487,1.4821370736472759,1.7793145804488812,9.435098486779927,5.43341054011326,4.001687946666667,2.0004219421578706,0.2945692224636432,mp-23173,23173
2403,CuI,4.17128791,-0.33041384250000005,3.91e-05,0,0,11.837746067195065,4.996556944325207,5.2640557463136055,1.0462890066688066,3.155172376491206,157.1722217616333,111.62594379799084,45.54627796364244,2.847231474929164,1.412970332273232,mp-22863,22863
2404,MnP4,7.87306366,-0.3083166739195415,1.0007530333333332,6,2,121.0615753644972,116.52316599659459,90.5037377661864,81.91497750726253,86.20935763672446,157.1722217616333,111.62594379799084,45.54627796364244,2.847231474929164,1.412970332273232,mp-769096,769096
2405,ScSnRu2,8.08426381,-0.5073834325000002,0.0032185,0,0,170.9020139636273,170.90201396362724,79.54443384037219,77.74564778914747,78.64504081475982,157.1722217616333,111.62594379799084,45.54627796364244,2.847231474929164,1.412970332273232,mp-867748,867748
2406,CuN3,1.78358832,0.2937954575000008,6.685e-05,0,0,16.158746324107515,3.9099156404247624,8.79384320419073,1.25479561108946,5.024319407640095,157.1722217616333,111.62594379799084,45.54627796364244,2.847231474929164,1.412970332273232,mp-27954,27954
2407,Cu2WS4,2.17268697,-0.7462458846428573,4e-07,0,0,23.065454295661308,3.3776738893928835,15.34873486005156,1.625800366867629,8.487267613459593,16.8747999,9.533258873333333,7.341541026666666,2.7095278235638522,0.7393200000000001,mp-8976,8976
2408,Li2SbPt,6.39937755,-0.6773404491666666,3.6e-06,0,0,81.331369836295,81.33136983629508,38.493744267005574,18.074624029461408,28.284184148233493,157.1722217616333,111.62594379799084,45.54627796364244,2.847231474929164,1.412970332273232,mp-3158,3158
2409,FePd3,4.40516564,-0.10825452499999955,4.2145088,4,2,174.35856577527915,174.35856577527917,75.65405353792418,66.25683894908357,70.95544624350387,157.1722217616333,111.62594379799084,45.54627796364244,2.847231474929164,1.412970332273232,mp-21845,21845
2410,Ca3N2,2.35359444,-0.9333944734999996,0.0002094125,0,0,67.88798587554346,67.88798587554348,33.60579880546994,33.60287506906132,33.60433693726563,157.1722217616333,111.62594379799084,45.54627796364244,2.847231474929164,1.412970332273232,mp-844,844
2411,MoF3,-0.77042734,-2.750936369375,3.0005377,1,1,91.95261210465989,91.95261210465988,54.547727031759614,17.49797362949252,36.02285033062607,157.1722217616333,111.62594379799084,45.54627796364244,2.847231474929164,1.412970332273232,mp-554201,554201
2412,VCo2Si,8.38538849,-0.421280542499999,2.9867764,3,2,213.11440620185178,213.11440620181392,84.81082228876895,47.5152706482045,66.16304646848673,157.1722217616333,111.62594379799084,45.54627796364244,2.847231474929164,1.412970332273232,mp-20586,20586
2413,SrHfO3,2.09226381,-3.812951887333334,4.725e-06,0,0,156.75203717475793,156.7151180263423,90.89147783948816,90.40920867724162,90.6503432583649,32.66451275666667,28.299838946666664,4.36467381,2.0891801765285827,1.412970332273232,mp-3378,3378
2414,MgCd3,3.1305682,-0.06979741624999991,0.00074825,0,0,44.79038561544458,44.75806827284517,12.106886840738689,11.964001047420112,12.0354439440794,157.1722217616333,111.62594379799084,45.54627796364244,2.847231474929164,1.412970332273232,mp-30491,30491
2415,YCdPd2,4.29207544,-0.729499534166667,0.0024537,0,0,97.85623464078841,97.85623464078843,28.67621095016621,17.844338805243268,23.260274877704738,157.1722217616333,111.62594379799084,45.54627796364244,2.847231474929164,1.412970332273232,mp-865520,865520
2416,Mg2Cu,4.45690023,-0.11874911666666677,0.0026267,0,0,56.09749212415133,56.03907493587937,28.809349407859806,25.320491141920293,27.06492027489005,157.1722217616333,111.62594379799084,45.54627796364244,2.847231474929164,1.412970332273232,mp-2481,2481
2417,LiAl2Pt,8.03640257,-0.8270093983333333,0.0011425,0,0,126.87552990906657,126.8755299090666,69.28772912260571,38.358526615808614,53.82312786920716,157.1722217616333,111.62594379799084,45.54627796364244,2.847231474929164,1.412970332273232,mp-30819,30819
2418,Ca3AsN,3.51863597,-1.165877991,9.1e-06,0,0,59.703174257313194,59.61889549860081,45.006807017849106,44.84792051567791,44.927363766763506,28.22379531,19.64326794333333,8.580527366666667,2.929253721797869,1.412970332273232,mp-4192,4192
2419,VBrO,2.70740451,-1.9885180891666667,2.0021043,2,1,48.18458565775575,15.643953198898455,26.106617360281614,5.781732089423967,15.94417472485279,8.092225563333331,3.6899009533333333,4.40232461,2.0981717303404888,1.412970332273232,mp-27841,27841
2420,ZnN,1.89378097,0.4368627174999995,0.0004606,0,0,132.4611379450383,132.46113794503805,30.478874802638362,13.682151078640363,22.080512940639363,157.1722217616333,111.62594379799084,45.54627796364244,2.847231474929164,1.412970332273232,mp-999485,999485
2421,LiB3O5,0.56806493,-2.8108321075925935,0.000237275,0,0,83.81861812793436,80.82466531209552,53.32316402454946,38.785882769596654,46.054523397073055,157.1722217616333,111.62594379799084,45.54627796364244,2.847231474929164,1.412970332273232,mp-3660,3660
2422,Al2CuO4,5.55195524,-2.653946341428571,0.9997194,2,1,185.44562842165752,185.4456284216576,54.73228112982304,34.033806710904315,44.383043920363676,157.1722217616333,111.62594379799084,45.54627796364244,2.847231474929164,1.412970332273232,mp-27719,27719
2423,Fe2Mo3O8,4.06955891,-1.679525405384616,18.00394725,10,3,148.3087035217667,133.30834782287215,42.64333440982952,41.61664611479867,42.129990262314095,157.1722217616333,111.62594379799084,45.54627796364244,2.847231474929164,1.412970332273232,mp-504974,504974
2424,Tm2O3,1.96361283,-4.041544182999999,0.004837066666666666,0,0,158.34278479188035,154.2155478246529,76.75304456041518,65.27324722911035,71.01314589476277,157.1722217616333,111.62594379799084,45.54627796364244,2.847231474929164,1.412970332273232,mp-556253,556253
2425,TbMnO3,3.8929842,-3.031316431086207,4.00027695,4,1,155.49394309567322,153.22675845319804,70.87214275785995,67.82823515688261,69.35018895737127,157.1722217616333,111.62594379799084,45.54627796364244,2.847231474929164,1.412970332273232,mp-22055,22055
2426,LiAlO2,5.17572448,-3.008295078333333,0.0003240166666666667,0,0,161.09300869206527,146.0556989578637,132.5674776589013,112.48988747074667,122.52868256482398,157.1722217616333,111.62594379799084,45.54627796364244,2.847231474929164,1.412970332273232,mp-34993,34993
2427,FeO,4.95096155,-1.3658974825000003,4.0000062,2,2,151.89601970156176,127.68635435544981,56.44850221456277,35.14271261535258,45.79560741495767,157.1722217616333,111.62594379799084,45.54627796364244,2.847231474929164,1.412970332273232,mp-756436,756436
2428,Zn3P2,3.27537034,-0.18831408583333342,0.0002461875,0,0,65.09600891988049,65.06475341347583,36.06171604583707,34.19481253873651,35.12826429228679,50.33226860666665,36.605402219999995,13.726866386666664,3.7049785946300235,1.412970332273232,mp-2071,2071
2429,CoAs,7.42646398,-0.3003154150000009,0.000236125,0,0,158.15674331931916,156.12017700313493,82.6171055266955,78.36467796679597,80.49089174674573,157.1722217616333,111.62594379799084,45.54627796364244,2.847231474929164,1.412970332273232,mp-583,583
2430,ZrSb,7.54441567,-0.8084696787500008,0.0040378,0,0,103.70855025932163,103.70855025932161,59.462035107171424,56.81511037363519,58.138572740403305,157.1722217616333,111.62594379799084,45.54627796364244,2.847231474929164,1.412970332273232,mp-569671,569671
2431,SrSnO3,4.02610106,-2.637945564833333,3.2375e-05,0,0,137.66358355104285,137.5418297045671,74.58964086515299,74.17441804592022,74.38202945553661,17.806729703333335,13.283993080000002,4.522736623333333,2.1266726648295764,1.412970332273232,mp-2879,2879
2432,LiIn(IO3)4,2.41278701,-1.1481154912962965,0.0017308,0,0,29.659957237101725,28.462297139355318,21.75310425719649,19.035738604030403,20.39442143061345,157.1722217616333,111.62594379799084,45.54627796364244,2.847231474929164,1.412970332273232,mp-973966,973966
2433,NbP,7.0762785,-0.9815329116666671,0.00204835,0,0,190.2106717418274,186.4487926234382,113.28649688316794,105.1333889116665,109.20994289741722,157.1722217616333,111.62594379799084,45.54627796364244,2.847231474929164,1.412970332273232,mp-9339,9339
2434,Li3Co,1.07199755,0.3279079337499997,0.884194,2,1,16.39995520761679,12.424687931793738,25.70168643423928,16.86394106649579,21.282813750367538,157.1722217616333,111.62594379799084,45.54627796364244,2.847231474929164,1.412970332273232,mp-977165,977165
2435,Fe3N,6.23486819,-0.15523950031250067,5.986333725,24,4,199.63864262472973,199.58257117945178,93.72208206110744,92.8567302703138,93.28940616571063,157.1722217616333,111.62594379799084,45.54627796364244,2.847231474929164,1.412970332273232,mp-673635,673635
2436,Al5Mo,8.30575832,-0.2425787691666669,0.00017005,0,0,120.8594365025138,120.31875848123121,94.64420479987629,94.06779892971217,94.35600186479422,157.1722217616333,111.62594379799084,45.54627796364244,2.847231474929164,1.412970332273232,mp-568607,568607
2437,NiPt,7.56642852,-0.09406082499999968,0.9215788,2,2,213.54563679043792,212.90890830305227,95.17441554211582,86.40359215480117,90.78900384845849,157.1722217616333,111.62594379799084,45.54627796364244,2.847231474929164,1.412970332273232,mp-945,945
2438,SnAu5,6.58955154,-0.046658759166666286,0.0015364,0,0,114.39257088575475,114.38876481250281,19.115142440473853,17.58809176928374,18.351617104878798,157.1722217616333,111.62594379799084,45.54627796364244,2.847231474929164,1.412970332273232,mp-30418,30418
2439,Sr3Ti2O7,2.91489648,-3.493003658472222,0.0003037,0,0,140.24501119024006,140.20675043314546,83.79077035447631,83.02931352470331,83.4100419395898,157.1722217616333,111.62594379799084,45.54627796364244,2.847231474929164,1.412970332273232,mp-3349,3349
2440,Ti2CS,8.20808649,-1.3781354611979157,1.97e-05,0,0,179.9466705374819,179.65953425596544,135.59116356890615,133.24917299518242,134.4201682820443,157.1722217616333,111.62594379799084,45.54627796364244,2.847231474929164,1.412970332273232,mp-3732,3732
2441,TiZnCu2,5.57951302,-0.16664676833333303,0.0001885,0,0,128.5436402824127,128.5436402822696,62.674958246746776,23.986578547762456,43.330768397254616,157.1722217616333,111.62594379799084,45.54627796364244,2.847231474929164,1.412970332273232,mp-865930,865930
2442,CaGa,2.85631431,-0.4759455987500001,0.00060225,0,0,37.26581391259405,33.67704521080215,27.3022615764939,21.697232080582904,24.499746828538402,157.1722217616333,111.62594379799084,45.54627796364244,2.847231474929164,1.412970332273232,mp-6914,6914
2443,MoCl3O,-0.78821928,-1.4063862715000006,0.993307075,4,1,4.059328594118331,1.4694569993279392,2.4021400965595334,0.4321663020144793,1.4171531992870063,157.1722217616333,111.62594379799084,45.54627796364244,2.847231474929164,1.412970332273232,mp-23528,23528
2444,CsPbBr3,0.52026702,-1.635622540586207,0.0005622,0,0,17.750573066770993,17.52794858170303,7.402639164469401,5.803406668399437,6.603022916434419,27.875249713333332,23.66920242666667,4.206047286666666,2.0508650093720617,1.412970332273232,mp-567629,567629
2445,O2,-2.58221255,0.012108549999999774,1.9994235,2,1,2.2461429872048373,2.223808101536926,0.6798514765096664,0.44034876191096867,0.5601001192103175,157.1722217616333,111.62594379799084,45.54627796364244,2.847231474929164,1.412970332273232,mp-610917,610917
2446,TiMn2O6,1.1163509,-2.2861204965772677,6.0006544,2,1,76.78254681515766,7.989778700393209,58.276511073476314,5.202734771296905,31.73962292238661,157.1722217616333,111.62594379799084,45.54627796364244,2.847231474929164,1.412970332273232,mp-775831,775831
2447,MgAu3,4.84307852,-0.3849615303749999,8.046e-05,0,0,111.06661041039453,110.95544906132481,32.73786593064453,31.261058973451554,31.999462452048043,157.1722217616333,111.62594379799084,45.54627796364244,2.847231474929164,1.412970332273232,mp-570017,570017
2448,EuCl2,4.34222328,-2.7644953633333347,7.000077675,4,1,26.495702001423524,25.30765036355475,11.884346832157915,10.167672662850064,11.02600974750399,157.1722217616333,111.62594379799084,45.54627796364244,2.847231474929164,1.412970332273232,mp-22887,22887
2449,KMgCl3,-0.06682891,-2.2607339500999997,0.001064925,0,0,31.26092645848597,31.245198074262053,15.900310719408179,15.686975483224419,15.793643101316299,157.1722217616333,111.62594379799084,45.54627796364244,2.847231474929164,1.412970332273232,mp-27865,27865
2450,TiGaRh2,7.11664792,-0.8438889402083332,0.0003664,0,0,194.04336899664705,194.04336899664705,41.131624673377765,-135.25453882823004,-47.06145707742614,157.1722217616333,111.62594379799084,45.54627796364244,2.847231474929164,1.412970332273232,mp-866157,866157
2451,TiNbS4,4.14593236,-1.4594601259722222,0.0007694,0,0,36.88722219327248,1.9503712358083385,27.141335385990555,0.5758130821063326,13.858574234048444,157.1722217616333,111.62594379799084,45.54627796364244,2.847231474929164,1.412970332273232,mp-34289,34289
2452,BeFe2Si,7.84091623,-0.37921702375000077,1.1984028,2,1,223.15535637076982,223.15535637067467,127.01275356985361,116.88265066305065,121.94770211645213,157.1722217616333,111.62594379799084,45.54627796364244,2.847231474929164,1.412970332273232,mp-862669,862669
2453,NbTeI3,2.94140862,-0.7703027800000001,0.000279925,0,0,8.001387231041285,3.778543258384201,4.16393198051217,-1.8697837113310418,1.147074134590564,9.276597330000001,2.5059341766666665,6.7706631533333335,2.6020497983961284,1.412970332273232,mp-540924,540924
2454,Mn3CuO8,1.0384683,-1.4535339478160918,7.9956569,4,2,85.41601806649881,84.53479752954738,45.38753869901676,27.16169161426446,36.27461515664061,157.1722217616333,111.62594379799084,45.54627796364244,2.847231474929164,1.412970332273232,mp-756513,756513
2455,VCuO3,4.54390606,-1.7961252550000004,0.0001357,0,0,143.23819646182608,133.21827921022003,42.2052234727839,4.053230079634129,23.129226776209013,157.1722217616333,111.62594379799084,45.54627796364244,2.847231474929164,1.412970332273232,mp-504580,504580
2456,CaPdF4,1.04354707,-2.8363586683333337,6.45e-06,0,0,74.88954908901988,72.78123797756533,31.575286343915657,29.14583931981127,30.36056283186346,7.0812850166666665,4.105606303333333,2.9756787133333336,1.7250155690118665,1.412970332273232,mp-8161,8161
2457,ScCdAg2,3.72134124,-0.24546225708333314,0.0008051,0,0,79.44928496234168,79.44928496234168,34.190161388976456,15.894723052940083,25.04244222095827,157.1722217616333,111.62594379799084,45.54627796364244,2.847231474929164,1.412970332273232,mp-867127,867127
2458,Sr2Fe2O5,1.93034964,-2.3719361381481483,9.99947455,14,5,114.83813322176196,114.5278708398707,54.24344201219796,52.00494798813315,53.12419500016556,157.1722217616333,111.62594379799084,45.54627796364244,2.847231474929164,1.412970332273232,mp-542018,542018
2459,TiSiNi,8.35307614,-0.8213968661111105,2.975e-06,0,0,176.80970269608383,176.27047780819234,105.89219433388485,102.16282444662393,104.02750939025438,157.1722217616333,111.62594379799084,45.54627796364244,2.847231474929164,1.412970332273232,mp-510409,510409
2460,Be2Cr,5.14889818,-0.22044840916666666,0.00041835,0,0,182.78048110976,182.76316269554138,158.0305393594364,157.31781321439308,157.67417628691476,157.1722217616333,111.62594379799084,45.54627796364244,2.847231474929164,1.412970332273232,mp-30438,30438
2461,Sr3(AlSi)2,3.73730792,-0.37984326857142897,0.0024842,0,0,43.66168126044303,42.551277023369096,31.52348999926865,30.54856535499986,31.036027677134257,157.1722217616333,111.62594379799084,45.54627796364244,2.847231474929164,1.412970332273232,mp-7068,7068
2462,GaTe,2.8866592,-0.5716701754166665,0.00021246666666666666,0,0,15.852317541283306,3.898644923350705,10.566824804939255,3.3075571423301695,6.937190973634713,11.683822988602103,2.518093331527176,9.165729657074928,3.0274956081016744,1.412970332273232,mp-542812,542812
2463,TiFeSi2,8.80876096,-0.6451737456250003,0.052718325,0,0,180.93022521613184,179.60618623302784,116.28020827540914,115.70160772758123,115.99090800149519,157.1722217616333,111.62594379799084,45.54627796364244,2.847231474929164,1.412970332273232,mp-21662,21662
2464,Be2CoPt,6.64481887,-0.5918615562500005,0.0026893,0,0,206.71143430265798,206.71143430265803,111.0343853097456,110.60880314131096,110.82159422552829,157.1722217616333,111.62594379799084,45.54627796364244,2.847231474929164,1.412970332273232,mp-867270,867270
2465,TiCo2Ge,7.52174617,-0.5124312795833337,1.9947372,2,1,179.07752867095144,179.07752867095138,84.95376461821425,71.096494510854,78.02512956453413,157.1722217616333,111.62594379799084,45.54627796364244,2.847231474929164,1.412970332273232,mp-4612,4612
2466,Nb2CoO6,2.39606041,-2.6712789252777784,3.001011825,4,1,143.5613623117234,142.17240588476238,62.445473327779105,60.83690426399715,61.64118879588813,157.1722217616333,111.62594379799084,45.54627796364244,2.847231474929164,1.412970332273232,mp-504552,504552
2467,Sr2ZnN2,2.69200818,-0.7085313586666672,0.0001429,0,0,67.0629119128762,64.79605513833488,38.07582194279377,32.83097332313585,35.45339763296481,17.83657515671312,11.55493133337979,6.281643823333334,2.506320774229295,1.412970332273232,mp-9306,9306
2468,Bi2Te3,5.12112798,-0.48730979799999974,0.0162275,0,0,19.926448180766876,10.09234687243166,13.34551934936225,8.417242938700314,10.881381144031282,89.89909430757713,57.295914190910445,32.60318011666668,5.709919449227518,1.412970332273232,mp-34202,34202
2469,YCo,3.25932252,-0.19720050333333372,0.09469185,2,1,57.66783141824433,50.755604169570205,24.8249317536906,19.72662860942378,22.275780181557188,157.1722217616333,111.62594379799084,45.54627796364244,2.847231474929164,1.412970332273232,mp-865373,865373
2470,HfO2,4.34339481,-3.9310829299999988,0.0003749,0,0,248.00664106474838,248.00664106474838,134.6854362169958,96.15861723081119,115.4220267239035,157.1722217616333,111.62594379799084,45.54627796364244,2.847231474929164,1.412970332273232,mp-550893,550893
2471,Li15Au4,1.41842241,-0.3525713423684213,0.0006031,0,0,28.417813421860664,28.41781342186066,13.353446197769737,12.420166136919368,12.886806167344552,157.1722217616333,111.62594379799084,45.54627796364244,2.847231474929164,1.412970332273232,mp-567395,567395
2472,NaRhO2,4.27006891,-1.4639627766379304,5.84e-05,0,0,120.73257799414039,111.86947004877483,68.30246616886777,60.89887517754178,64.60067067320477,10.992977716647657,4.069943226647655,6.923034490000003,2.6311659943834793,1.412970332273232,mp-8830,8830
2473,MnV,6.80921405,-0.284082053965518,3.75e-05,0,0,242.7561446548868,242.75614465488675,129.6361868616203,114.93522718829523,122.28570702495776,157.1722217616333,111.62594379799084,45.54627796364244,2.847231474929164,1.412970332273232,mp-316,316
2474,CuTe,6.01777261,-0.27698152249999985,7.25e-06,0,0,21.074694306694568,8.503425534049311,12.609013849283718,5.014441256292509,8.811727552788113,157.1722217616333,111.62594379799084,45.54627796364244,2.847231474929164,1.412970332273232,mp-20826,20826
2475,MnV2O6,0.139,-2.332355423659005,5.00080175,6,6,49.26312813542103,47.90944732497111,25.682553698453873,24.307168159220293,24.994860928837085,9.313492599137735,4.847707625751845,4.465784973385889,2.113240396496785,1.412970332273232,mp-754274,754274