,formula_pretty,efermi,formation_energy_per_atom,total_magnetization_normalized_formula_units,num_magnetic_sites,num_unique_magnetic_sites,k_voigt,k_reuss,g_voigt,g_reuss,g_vrh,e_total,e_ionic,e_electronic,n,e_ij_max,material_id,b
312,Nb3Au,5.48062093,-0.06562293500000038,0.84123765,6,1,183.76359903779746,183.7635990377975,68.77851217768233,54.80732515359298,61.79291866563766,157.1722217616333,111.62594379799084,45.54627796364244,2.847231474929164,1.412970332273232,mp-2752,2752
313,ZnCu2Ni,5.79667775,-0.12242532750000024,0.0004084,0,0,142.73689678715306,142.71880282561122,67.87751038617382,50.43789808299158,59.1577042345827,157.1722217616333,111.62594379799084,45.54627796364244,2.847231474929164,1.412970332273232,mp-30593,30593
314,NaI,0.85610586,-1.459640155775862,0.0003867,0,0,15.755163711631875,15.755163711631875,8.658382556597378,8.272349683020286,8.46536611980883,8.361272759835579,5.028597816536732,3.332674943298848,1.8255615419094608,1.412970332273232,mp-23268,23268
315,LiGa2Pt,5.76479498,-0.6226674795833329,0.0012608,0,0,98.27915112039437,98.27915112039433,39.745871052514865,11.290926503508146,25.518398778011505,157.1722217616333,111.62594379799084,45.54627796364244,2.847231474929164,1.412970332273232,mp-20363,20363
316,Sn3Pd,7.75589388,-0.29265065375,0.0021586,0,0,64.80477078798111,63.47100798139189,26.855256003978162,23.89308770735387,25.374171855666017,157.1722217616333,111.62594379799084,45.54627796364244,2.847231474929164,1.412970332273232,mp-1371,1371
317,Al5Mo,8.69013504,-0.2383154291666673,0.000129,0,0,120.0193459213622,117.04336096453707,85.98362094633713,85.0419847064122,85.51280282637467,157.1722217616333,111.62594379799084,45.54627796364244,2.847231474929164,1.412970332273232,mp-571053,571053
318,ZrSe3,3.04578164,-1.4020921567578117,1.055e-05,0,0,25.191206306958993,7.46688088141606,16.062245914059947,2.384871254474431,9.223558584267188,13.393563586666666,3.5951824466666658,9.798381139999998,3.13023659489183,1.412970332273232,mp-1683,1683
319,HfBe2,3.67345423,-0.17074517666666722,5.98e-05,0,0,128.58741506957227,128.38313418208892,107.29777012408928,99.42338672145799,103.36057842277364,157.1722217616333,111.62594379799084,45.54627796364244,2.847231474929164,1.412970332273232,mp-2553,2553
320,YCuTe2,5.17332865,-1.1100723979166673,1.78e-05,0,0,42.68093820649493,42.3116247246603,22.772067524344244,19.38403518218704,21.078051353265643,157.1722217616333,111.62594379799084,45.54627796364244,2.847231474929164,1.412970332273232,mp-945184,945184
321,GaFe3,5.36113067,-0.13532719187500053,6.9763071,3,1,174.30544049669754,174.30544049669734,77.49138838405516,30.702248646345694,54.096818515200425,157.1722217616333,111.62594379799084,45.54627796364244,2.847231474929164,1.412970332273232,mp-19870,19870
322,Y(AlGe)2,5.17288891,-0.418217383333333,0.0040406,0,0,71.42044748962007,71.23937757828799,38.51019919791603,30.12736712163353,34.31878315977478,157.1722217616333,111.62594379799084,45.54627796364244,2.847231474929164,1.412970332273232,mp-10521,10521
323,BePd2,4.96062916,-0.506112018333333,0.000174,0,0,166.4165073993379,166.29386862762158,69.95214324203137,62.472783627888454,66.21246343495991,157.1722217616333,111.62594379799084,45.54627796364244,2.847231474929164,1.412970332273232,mp-13452,13452
324,C,9.732589,0.1364125350000016,0.0002721,0,0,435.6869405997525,435.68694059975263,522.5526708205186,517.981742179817,520.2672065001678,5.829713979999976,0.0,5.829713979999976,2.414480064113178,1.412970332273232,mp-66,66
325,LaCo5,6.65955134,-0.017366981666666465,6.7657399,6,3,134.97787476921548,131.381567763883,29.80427711121737,23.450199618473093,26.627238364845233,157.1722217616333,111.62594379799084,45.54627796364244,2.847231474929164,1.412970332273232,mp-1731,1731
326,TiRh,6.87657007,-0.7413721266666666,0.0048875,0,0,189.63945583216415,189.42866288112359,49.61459793240439,49.13244782458726,49.37352287849583,157.1722217616333,111.62594379799084,45.54627796364244,2.847231474929164,1.412970332273232,mp-2583,2583
327,Rb(CoS)2,4.67850619,-0.8140856027500007,2.0218986,2,1,50.99153334232507,48.12155912829658,33.58689528142335,30.052387906926885,31.819641594175117,157.1722217616333,111.62594379799084,45.54627796364244,2.847231474929164,1.412970332273232,mp-560663,560663
328,Fe3Si,7.72918545,-0.3040792425000003,4.8902705,3,2,211.8779172369563,211.87791723694178,105.19020681387074,80.29498843215896,92.74259762301486,157.1722217616333,111.62594379799084,45.54627796364244,2.847231474929164,1.412970332273232,mp-2199,2199
329,Sc2FeSi2,6.39803843,-0.7465828129999992,0.00651485,0,0,119.99037865475094,119.52347693224038,76.13780553527118,74.53447640451316,75.33614096989217,157.1722217616333,111.62594379799084,45.54627796364244,2.847231474929164,1.412970332273232,mp-3618,3618
330,Ca2ZnRh,3.21364221,-0.2888083299999997,0.0012588,0,0,48.81569978033881,48.8156997803388,19.855676980547187,16.743254929554602,18.299465955050895,157.1722217616333,111.62594379799084,45.54627796364244,2.847231474929164,1.412970332273232,mp-867854,867854
331,NbAs2,5.90971688,-0.5261645299999991,0.00043875,0,0,125.64210636069645,123.30228488364249,91.96872701576561,87.51955943453548,89.74414322515054,157.1722217616333,111.62594379799084,45.54627796364244,2.847231474929164,1.412970332273232,mp-7598,7598
332,CaPd2,4.00417202,-0.6941216633333328,0.0016006,0,0,94.25759850173671,94.25759850173668,38.27345498430761,35.886982244671195,37.080218614489404,157.1722217616333,111.62594379799084,45.54627796364244,2.847231474929164,1.412970332273232,mp-833,833
333,Cs3BAs2,1.47075565,-0.3478052629932951,1.43e-05,0,0,12.65558413476983,12.518105575280682,5.746093194852231,4.678374879272374,5.212234037062302,10.704149506666667,5.966294343333335,4.737855163333333,2.1766614719182527,1.412970332273232,mp-573658,573658
334,MoO2,2.00928831,-1.7656188166666678,1.999987675,4,4,77.84002888073506,72.81266518704547,43.77566532542652,32.025430957989194,37.90054814170786,157.1722217616333,111.62594379799084,45.54627796364244,2.847231474929164,1.412970332273232,mp-715482,715482
335,NaSbO3,4.05619912,-1.968776009310345,0.00013305,0,0,129.04536593085308,128.6504640043768,95.60316973941296,91.67475618121836,93.63896296031567,157.1722217616333,111.62594379799084,45.54627796364244,2.847231474929164,1.412970332273232,mp-22212,22212
336,C,9.82146161,0.14115684875000056,1.166875e-05,0,0,435.65148484024786,435.6501298115322,522.7708818385653,520.274371036512,521.5226264375386,157.1722217616333,111.62594379799084,45.54627796364244,2.847231474929164,1.412970332273232,mp-616440,616440
337,SrFeO2,3.93945401,-2.2923045941666667,5e-08,2,1,106.88651081255196,94.30065198494053,64.97846231700582,53.226851933332476,59.102657125169145,5.137345326666668,0.0,5.137345326666668,2.2665712710317907,1.412970332273232,mp-21145,21145
338,Sn4Au,7.40560273,-0.07477007600000007,3.89e-05,0,0,51.254188217374754,51.15858660289648,14.143573474805828,8.463372167804462,11.303472821305146,157.1722217616333,111.62594379799084,45.54627796364244,2.847231474929164,1.412970332273232,mp-1393,1393
339,Ca(MgBi)2,3.8703545,-0.5287092359999999,0.0002297,0,0,34.690743822928575,34.428489781371574,21.941680121587282,21.563424497604366,21.752552309595824,24.23777536999891,7.486771523332242,16.751003846666666,4.092799023488286,1.412970332273232,mp-29208,29208
340,Nb2CS2,5.44209398,-1.0494413792499997,3.5e-06,0,0,64.36494617473696,5.07871651003719,48.42322688284633,3.500693875616914,25.96196037923162,157.1722217616333,111.62594379799084,45.54627796364244,2.847231474929164,1.412970332273232,mp-5745,5745
341,NaVO2,5.0347109,-2.2788729691379306,1.5e-07,2,1,119.2096757320938,117.4562948273218,20.745695442803544,336.58799587693665,178.6668456598701,157.1722217616333,111.62594379799084,45.54627796364244,2.847231474929164,1.412970332273232,mp-753393,753393
342,YMgAl,4.18213241,-0.3319419711111106,0.0004497,0,0,57.46248854385928,57.4176068711462,45.271707693866,42.57548012159727,43.923593907731636,157.1722217616333,111.62594379799084,45.54627796364244,2.847231474929164,1.412970332273232,mp-13090,13090
343,Bi2Pd,7.02936899,-0.2134791266666672,0.0001144,0,0,56.56323298402848,53.572985655804914,14.159070317672915,13.080722360988613,13.619896339330765,157.1722217616333,111.62594379799084,45.54627796364244,2.847231474929164,1.412970332273232,mp-570197,570197
344,K2NiO2,0.74960464,-1.3091295112000005,2.0001876,1,1,30.66165124967843,27.8096549382153,15.737664366332849,14.283227506182016,15.010445936257433,6.837315300000001,3.984670486666667,2.852644813333334,1.6889774460700575,1.412970332273232,mp-19252,19252
345,FeN,5.56133386,-0.31464321750000046,0.002122,0,0,266.99811730313485,266.9981173031348,73.2822600869803,47.48680464303461,60.38453236500746,157.1722217616333,111.62594379799084,45.54627796364244,2.847231474929164,1.412970332273232,mp-6988,6988
346,Al3Fe2Si3,8.9139928,-0.3213418190624999,0.027625825,0,0,144.7034402206853,142.39587991941204,91.37492939624661,86.67419645783403,89.02456292704032,157.1722217616333,111.62594379799084,45.54627796364244,2.847231474929164,1.412970332273232,mp-29066,29066
347,LiNi2Sn,7.49428482,-0.27391635208333387,0.0004019,0,0,108.33860832267324,108.3386083226732,44.70869549882649,11.44747159780418,28.078083548315337,157.1722217616333,111.62594379799084,45.54627796364244,2.847231474929164,1.412970332273232,mp-13915,13915
348,LiI,1.78249667,-1.3857797941666667,0.0004007,0,0,20.63477016256236,20.634770162562365,13.040941614983735,12.893761538204874,12.967351576594304,19.97716696000281,15.866780396669503,4.110386563333305,2.027408829844959,1.412970332273232,mp-22899,22899
349,Nb3O7F,1.32500069,-3.055334592499999,4e-07,0,0,214.82483521377188,212.26057863165977,117.02647987734265,85.5787922227313,101.30263605003697,157.1722217616333,111.62594379799084,45.54627796364244,2.847231474929164,1.412970332273232,mp-753459,753459
350,Ba(NiP2)2,6.58222069,-0.6554143761904763,3.74e-05,0,0,97.80348207510244,97.65505298186056,47.02515534509671,38.8104085563786,42.91778195073765,157.1722217616333,111.62594379799084,45.54627796364244,2.847231474929164,1.412970332273232,mp-571420,571420
351,NaCu2O3,2.01028827,-1.1435313602586206,0.000218,0,0,102.3933913793043,39.766821621293694,45.011929732659446,-374.6315100979195,-164.80979018263002,157.1722217616333,111.62594379799084,45.54627796364244,2.847231474929164,1.412970332273232,mp-754631,754631
352,TiZn(BiO3)2,4.86169566,-2.197995938333334,2.93e-05,0,0,89.0503119500816,77.50916834908982,32.58367269334955,13.1941379684623,22.888905330905924,157.1722217616333,111.62594379799084,45.54627796364244,2.847231474929164,1.412970332273232,mp-557950,557950
353,ZrAs,5.62247952,-1.1422787262500007,0.007421,0,0,118.44241314540912,117.50505140230915,70.51089830079118,59.61149001994378,65.06119416036748,157.1722217616333,111.62594379799084,45.54627796364244,2.847231474929164,1.412970332273232,mp-1682,1682
354,MnZnO3,2.34548018,-1.8136498225862083,2.99992435,2,1,161.6550762617855,158.22558841538637,61.30378200210888,38.53454905185529,49.919165526982084,157.1722217616333,111.62594379799084,45.54627796364244,2.847231474929164,1.412970332273232,mp-754318,754318
355,SrF2,-1.85096453,-4.232558450555556,3.8e-06,0,0,65.02474192575455,65.02474192575455,32.42324215566285,31.821185392794956,32.122213774228904,6.456894239916896,4.127998826583683,2.328895413333213,1.5260718899623351,1.412970332273232,mp-981,981
356,V3NiS6,6.59176692,-1.0964174088750007,1.498731,4,3,70.12608470052584,70.10118250588494,42.04901767922309,32.84760285445184,37.44831026683747,157.1722217616333,111.62594379799084,45.54627796364244,2.847231474929164,1.412970332273232,mp-676058,676058
357,ScVO3,4.65390564,-3.202248177500001,1.999986175,4,1,187.83038587372982,173.65755871668145,76.42442929004825,70.08137780412305,73.25290354708565,157.1722217616333,111.62594379799084,45.54627796364244,2.847231474929164,1.412970332273232,mp-756546,756546
358,SnI2,3.00863636,-0.7447498127777779,0.00040053333333333333,0,0,10.547264759407978,9.002567111696301,5.656375398429077,-5.899314016721245,-0.12146930914608411,157.1722217616333,111.62594379799084,45.54627796364244,2.847231474929164,1.412970332273232,mp-27194,27194
359,Zn2Ni3O5,5.32490377,-1.3719560575000003,2.0,3,2,176.72587427032715,176.64827885474955,82.77069871571497,82.50810853915269,82.63940362743384,157.1722217616333,111.62594379799084,45.54627796364244,2.847231474929164,1.412970332273232,mp-759178,759178
360,ZrBrN,1.28736707,-1.8887928608333329,6.85e-06,0,0,36.009766757009274,-5.149655137572314,28.85511431315476,10.007697372694881,19.43140584292482,157.1722217616333,111.62594379799084,45.54627796364244,2.847231474929164,1.412970332273232,mp-570157,570157
361,BaGe3Pt,5.68941123,-0.632413065,0.0001299,0,0,75.088664899049,75.08776195180994,39.57974392853573,39.34550224534523,39.46262308694048,157.1722217616333,111.62594379799084,45.54627796364244,2.847231474929164,1.412970332273232,mp-22346,22346
362,Si,4.15691749,0.08163676652173928,1.4069565217391305e-05,0,0,79.16510870708593,79.16510870708592,47.32017789860303,47.20176580161317,47.2609718501081,12.126625089999996,0.08412862000000008,12.042496469999996,3.4702300312803467,0.0019200000000000007,mp-971661,971661
363,Mn2AlCo,6.75159189,-0.278881467715518,1.9974583,3,3,158.802320679171,158.80232067917103,111.25303100056114,96.66766063547283,103.96034581801698,157.1722217616333,111.62594379799084,45.54627796364244,2.847231474929164,1.412970332273232,mp-13079,13079
364,FeGe2,7.87953154,-0.06332919166666547,1.2156233,2,1,120.16023800363094,119.89474993023181,80.47721537053846,72.61139735695099,76.54430636374472,157.1722217616333,111.62594379799084,45.54627796364244,2.847231474929164,1.412970332273232,mp-21117,21117
365,Ba2NiF6,2.03601211,-3.5281775194444447,2.0017829,1,1,60.09153485238052,58.61382944663634,29.651390521338794,27.844609836131475,28.748000178735133,157.1722217616333,111.62594379799084,45.54627796364244,2.847231474929164,1.412970332273232,mp-556041,556041
366,Li2Sn2Au,4.8189702,-0.44432165533333323,9.18e-05,0,0,47.48708265118244,47.411791722274124,23.16712384247076,19.301807835789262,21.23446583913001,157.1722217616333,111.62594379799084,45.54627796364244,2.847231474929164,1.412970332273232,mp-31496,31496
367,ScSbRh2,8.29567523,-0.7848349362500002,0.0015589,0,0,155.324240527173,155.32424052717315,27.40684656417061,-116.02622769496332,-44.30969056539636,157.1722217616333,111.62594379799084,45.54627796364244,2.847231474929164,1.412970332273232,mp-862635,862635
368,PbC2(SN)2,1.70296978,-0.14053001089285694,0.00027305,0,0,27.058095490021262,23.514561376914997,12.879715197282827,10.536910243387066,11.708312720334947,157.1722217616333,111.62594379799084,45.54627796364244,2.847231474929164,1.412970332273232,mp-20605,20605
369,ZnO,3.08142185,-1.0736901225,0.0022909,0,0,157.01738703653993,157.01738703653993,39.644410959099815,-125.80923445600381,-43.082411748451996,157.1722217616333,111.62594379799084,45.54627796364244,2.847231474929164,1.412970332273232,mp-13161,13161
370,InCuPd2,6.6161766,-0.3850850924999998,0.000188,0,0,128.2818600525264,128.28186005252638,32.98859473784035,-71.11694797742479,-19.064176619792217,157.1722217616333,111.62594379799084,45.54627796364244,2.847231474929164,1.412970332273232,mp-867308,867308
371,CrOF3,-2.04121222,-2.2409894800000005,1.000223,8,2,22.094241258098513,21.28671018539129,18.927904776916325,17.12395566190858,18.02593021941245,6.95443684,3.883312266666666,3.0711245733333326,1.7524624313614636,1.9750771673278988,mp-31703,31703
372,C(ClF)2,-2.48509338,-1.3977999840000002,0.00052605,0,0,2.4597994093422173,2.34744402798569,1.0955609196434932,1.035893679250277,1.0657272994468852,2.428072656664153,0.41171021999749585,2.016362436666657,1.4199867734125755,0.06992557448108712,mp-22966,22966
373,Ba(FeS2)2,4.00044352,-1.1367303089285719,0.0029237,0,0,44.06956340214209,39.53587258719491,23.103677382586998,14.94154756596221,19.022612474274602,157.1722217616333,111.62594379799084,45.54627796364244,2.847231474929164,1.412970332273232,mp-675078,675078
374,Li2WS4,-0.53748393,-1.140887319880953,0.0001465,0,0,9.657504569731257,3.369494591596206,5.724751176627643,1.7920755482968258,3.7584133624622345,4.39602018,0.8887920766666665,3.5072281033333326,1.8727594889182466,0.09024999999999996,mp-753195,753195
375,CaBi4O9,3.79135755,-1.7544656800000011,0.00018685,0,0,87.13654679469947,83.92841623986297,39.38075611301517,34.53107973259088,36.955917922803025,157.1722217616333,111.62594379799084,45.54627796364244,2.847231474929164,1.412970332273232,mp-1041411,1041411
376,NaCrN2,3.01913078,-0.5746908103879314,0.99778455,2,1,75.65297594849656,75.65106213023823,37.89275534553416,34.24283430455617,36.06779482504517,157.1722217616333,111.62594379799084,45.54627796364244,2.847231474929164,1.412970332273232,mp-1029407,1029407
377,CaMg(SiO3)2,2.96505317,-3.3468844765,0.0003689,0,0,106.05174761313654,97.3971594496826,66.35946967744557,61.89320614803448,64.12633791274003,8.659524706666668,5.672063763333334,2.9874609433333337,1.7284273034563338,1.412970332273232,mp-6766,6766
378,CeAlPd,7.36763992,-0.7825668116666668,0.002363066666666667,0,0,94.41088782451874,91.31583374426751,40.65269732169095,38.784573310997175,39.71863531634406,157.1722217616333,111.62594379799084,45.54627796364244,2.847231474929164,1.412970332273232,mp-21158,21158
379,MnNi2Ge,8.10774923,-0.22366169323275908,3.8746726,3,2,156.9055977090743,156.90559770907345,48.126837337461104,-6.182973026840683,20.97193215531021,157.1722217616333,111.62594379799084,45.54627796364244,2.847231474929164,1.412970332273232,mp-22029,22029
380,NiPO4,2.81682329,-1.9201107088888894,0.97837795,2,1,79.80970368838362,73.14506143196475,41.60285477537404,34.493248267194375,38.04805152128421,157.1722217616333,111.62594379799084,45.54627796364244,2.847231474929164,1.412970332273232,mp-25304,25304
381,ZnN,1.75737499,0.4518577324999997,0.00479145,0,0,129.43164226334676,123.33191538779798,25.960212281277318,24.987499262115318,25.473855771696318,157.1722217616333,111.62594379799084,45.54627796364244,2.847231474929164,1.412970332273232,mp-971911,971911
382,SnPd,7.81779058,-0.5318151437500003,3.25e-06,0,0,102.63694825159136,99.4404824057374,42.214351171908746,29.74045739087347,35.97740428139111,157.1722217616333,111.62594379799084,45.54627796364244,2.847231474929164,1.412970332273232,mp-2369,2369
383,Y2Cl3,3.72370384,-2.2178437486666667,1.655e-05,0,0,24.103178481009987,8.438371438809904,14.842436208720192,9.170392539251258,12.006414373985725,9.872285818106127,3.3384758847857943,6.533809933320334,2.556131830191928,1.412970332273232,mp-27678,27678
384,Zn13Rh,3.34674386,-0.13004559357142856,0.0084732,0,0,88.49926144810178,87.63642617145287,41.11572585657153,38.1363088875357,39.62601737205361,157.1722217616333,111.62594379799084,45.54627796364244,2.847231474929164,1.412970332273232,mp-13447,13447
385,InSe,3.36411748,-0.7425773061718752,0.0,0,0,16.749993042220574,3.699797172370623,10.941521884570852,2.608652697391047,6.77508729098095,157.1722217616333,111.62594379799084,45.54627796364244,2.847231474929164,1.412970332273232,mp-20485,20485
386,Sc2CoSi2,6.46034083,-0.8134225569999991,9.605e-05,0,0,122.6608879633666,122.4009924757258,77.82171090588332,77.0392565724073,77.4304837391453,157.1722217616333,111.62594379799084,45.54627796364244,2.847231474929164,1.412970332273232,mp-9902,9902
387,MnF3,-1.98481254,-2.7608555063577587,3.99779905,2,1,53.52065285628058,38.2630362350387,43.705065534016946,26.42600060319696,35.06553306860695,6.948710073586628,3.452658918737557,3.49605115484907,1.8697730222807982,1.412970332273232,mp-764949,764949
388,BN,1.7125124,-1.4593425520833332,0.0,0,0,286.85124241317925,4.2717768005258705,16.515485881451028,3.851801027493819,10.183643454472424,4.903602830013537,1.1729682600130695,3.7306345700004684,1.9314850685419416,0.5306473302639757,mp-13150,13150
389,HfAs,6.24794496,-0.9975424462499998,0.00137695,0,0,127.88204465660394,126.90717939889416,72.98395872778626,59.19577812654481,66.08986842716553,157.1722217616333,111.62594379799084,45.54627796364244,2.847231474929164,1.412970332273232,mp-9954,9954