,formula_pretty,efermi,formation_energy_per_atom,total_magnetization_normalized_formula_units,num_magnetic_sites,num_unique_magnetic_sites,k_voigt,k_reuss,g_voigt,g_reuss,g_vrh,e_total,e_ionic,e_electronic,n,e_ij_max,material_id,b
3016,ZnGeO3,2.24983274,-1.9663922169999999,1.27e-05,0,0,165.9212160083771,157.60797578407005,64.64054228053274,31.98122047088773,48.31088137571024,157.1722217616333,111.62594379799084,45.54627796364244,2.847231474929164,1.412970332273232,mp-8285,8285
3017,Ag2PdO2,2.70883702,-0.4754684486666669,2e-06,0,0,90.5807157310409,77.15758590876872,21.345135126615496,6.393972158492481,13.869553642553988,157.1722217616333,111.62594379799084,45.54627796364244,2.847231474929164,1.412970332273232,mp-5495,5495
3018,Sr(FeO2)2,1.32604872,-2.1484798761309523,0.0,24,12,72.08962036601336,69.4627086895613,27.631805702779896,26.11840683079102,26.87510626678546,157.1722217616333,111.62594379799084,45.54627796364244,2.847231474929164,1.412970332273232,mp-21926,21926
3019,CaZn5,2.82309759,-0.22792974666666677,6.47e-05,0,0,61.880726329211456,60.68492242521007,39.493794020376164,37.92784613447438,38.71082007742527,157.1722217616333,111.62594379799084,45.54627796364244,2.847231474929164,1.412970332273232,mp-1734,1734
3020,HgPt,5.16268072,0.05674816749999989,5.14e-05,0,0,146.9876172264368,146.98624393117936,37.02374740187553,34.92634326350121,35.97504533268837,157.1722217616333,111.62594379799084,45.54627796364244,2.847231474929164,1.412970332273232,mp-623,623
3021,CaZrRh2,4.97403941,-0.5695847549999993,3.4e-06,0,0,120.06478562769078,120.0647856276903,40.336996569987576,40.295100907199725,40.31604873859365,157.1722217616333,111.62594379799084,45.54627796364244,2.847231474929164,1.412970332273232,mp-861662,861662
3022,Ca3Ag8,2.94530298,-0.2338832616666667,2.67e-05,0,0,49.81201839280219,49.81201839280219,21.52542509704578,20.204395473990434,20.864910285518107,157.1722217616333,111.62594379799084,45.54627796364244,2.847231474929164,1.412970332273232,mp-646824,646824
3023,MgRhF6,-0.7969031,-2.569522476875,1.0000303,1,1,30.039905475601,23.675596703437247,32.025051465087714,21.6788915416368,26.851971503362257,157.1722217616333,111.62594379799084,45.54627796364244,2.847231474929164,1.412970332273232,mp-9927,9927
3024,LiBC,4.2961937,-0.37570868750000014,0.0017849,0,0,181.4921530058032,124.80906965972059,169.95634841757655,97.09057994833466,133.5234641829556,17.135822220000794,5.467558903334127,11.668263316666668,3.4158839729514625,1.412970332273232,mp-9244,9244
3025,Co3(SnS)2,8.13462927,-0.4944423058928566,1.003299,3,1,97.07523209891798,96.87828067318489,57.469901690289674,55.54644075896499,56.50817122462733,157.1722217616333,111.62594379799084,45.54627796364244,2.847231474929164,1.412970332273232,mp-19807,19807
3026,CuAgS,4.3610271,-0.2730919349305558,0.00015505,0,0,48.113019317124774,35.524228167803884,18.017543061683863,13.50006115925561,15.758802110469738,157.1722217616333,111.62594379799084,45.54627796364244,2.847231474929164,1.412970332273232,mp-5014,5014
3027,YAl3Ni,6.39052679,-0.5990709523333336,0.00046615,0,0,92.90000435431739,92.82249805179795,61.006192804579975,58.427818482012825,59.7170056432964,157.1722217616333,111.62594379799084,45.54627796364244,2.847231474929164,1.412970332273232,mp-4054,4054
3028,ZrNCl,1.03025738,-1.8570445783333345,1.235e-05,0,0,54.91006385157627,1.699597623925946,29.444498411187556,-0.06250352375569752,14.69099744371593,157.1722217616333,111.62594379799084,45.54627796364244,2.847231474929164,1.412970332273232,mp-632657,632657
3029,C,10.04072774,0.8330894637500013,0.0,0,0,387.49986606057087,387.4998660605708,504.20805043429243,503.36594872037165,503.78699957733204,157.1722217616333,111.62594379799084,45.54627796364244,2.847231474929164,1.412970332273232,mp-24,24
3030,Li3PS4,1.41355318,-1.1883385704166662,0.0,0,0,22.24116993338583,20.69120814744482,11.609009647656531,11.34148925105359,11.475249449355061,157.1722217616333,111.62594379799084,45.54627796364244,2.847231474929164,1.412970332273232,mp-985583,985583
3031,GeAs,4.91873919,0.0623877600000009,0.0014869,0,0,65.52969992610474,59.30408993320851,43.54800184447758,31.524367307105013,37.536184575791296,157.1722217616333,111.62594379799084,45.54627796364244,2.847231474929164,1.412970332273232,mp-7591,7591
3032,NbFeSb,7.27691586,-0.4020751399999997,1.03e-05,0,0,165.818855747075,165.81885574707502,83.37611777022175,79.2007761331315,81.28844695167663,44.308691818908095,19.567617635574933,24.741074183333165,4.974040026309917,2.2294890116153416,mp-9437,9437
3033,Ti2Cu3,6.79653637,-0.07428856733333333,1.0006131,3,3,131.84905628891985,131.7636986559438,58.986780913115645,37.65627471377839,48.32152781344702,157.1722217616333,111.62594379799084,45.54627796364244,2.847231474929164,1.412970332273232,mp-30599,30599
3034,CaSc2O4,2.95338257,-3.7836882207142852,1.7325e-05,0,0,145.27623021012764,142.26376310601307,83.76659576158939,80.96381191408003,82.36520383783471,157.1722217616333,111.62594379799084,45.54627796364244,2.847231474929164,1.412970332273232,mp-4056,4056
3035,AsCl3,-1.95089892,-1.1775401468750002,0.0,0,0,1.138760112368817,1.1323230032754517,0.6389427564124665,0.5130160650971171,0.5759794107547918,3.3035076333333335,0.8351147833333332,2.4683928499999994,1.5711119788226424,0.012809999999999998,mp-23280,23280
3036,AgBr,1.55338318,-0.5970191770833333,0.0005309,0,0,39.563325513266314,39.56332551326631,9.988396854957939,9.140969423085018,9.56468313902148,12.692159136763971,5.864561666763977,6.827597469999996,2.6129671773675223,1.412970332273232,mp-23231,23231
3037,Sr2CuO3,3.49286062,-2.4368141980555555,0.0018128,0,0,99.56353476131163,96.08067252113837,55.67716358811154,52.80823627726027,54.24269993268591,157.1722217616333,111.62594379799084,45.54627796364244,2.847231474929164,1.412970332273232,mp-5456,5456
3038,TiOF,6.15135288,-3.394761034444445,0.998185525,4,1,159.62621655455172,151.15129345602577,69.19983080599164,62.40944962801141,65.80464021700152,157.1722217616333,111.62594379799084,45.54627796364244,2.847231474929164,1.412970332273232,mp-752496,752496
3039,VCoO4,2.00250777,-1.8231918283333333,1.15e-06,0,0,88.06063800841143,76.98091650639194,48.680611314613,46.411846234636904,47.54622877462495,157.1722217616333,111.62594379799084,45.54627796364244,2.847231474929164,1.412970332273232,mp-771137,771137
3040,BSb,7.39875977,0.27397275041666713,0.0002022,0,0,99.45536559330753,99.45536559330752,86.2435582412632,82.40456008617898,84.32405916372109,157.1722217616333,111.62594379799084,45.54627796364244,2.847231474929164,1.412970332273232,mp-997618,997618
3041,Si3N4,8.8173293,-0.8044823871428578,0.0,0,0,227.74978628562667,223.52230983572747,98.08397652361286,97.220619097002,97.65229781030743,157.1722217616333,111.62594379799084,45.54627796364244,2.847231474929164,1.412970332273232,mp-40793,40793
3042,LiMg,1.79267122,-0.04875505166666697,0.00040576666666666665,0,0,25.638248936424777,25.624573012568682,19.5002927590021,12.74640180050278,16.12334727975244,157.1722217616333,111.62594379799084,45.54627796364244,2.847231474929164,1.412970332273232,mp-976239,976239
3043,MoPbO4,2.57107608,-1.9304668050000007,6.805e-05,0,0,65.78022446288479,64.51582609437311,24.156973520068536,21.947881162600304,23.052427341334422,34.52397718146431,29.402123567520476,5.121853613943833,2.263151257416047,1.412970332273232,mp-22169,22169
3044,HfPd5,5.0377377,-0.6386600049999996,0.0001196,0,0,169.1342393135459,169.12208672416398,73.11523207822898,66.50560908654725,69.81042058238812,157.1722217616333,111.62594379799084,45.54627796364244,2.847231474929164,1.412970332273232,mp-865166,865166
3045,MnCo2Si,7.54046291,-0.43691785948275896,5.0027806,3,2,219.29238803642332,219.29238803642332,113.36671048768356,101.40634499155831,107.38652773962093,157.1722217616333,111.62594379799084,45.54627796364244,2.847231474929164,1.412970332273232,mp-4492,4492
3046,NiPb,7.99473913,0.08740727500000034,6.125e-05,0,0,86.50354668191622,86.07611879578725,38.49693900584525,36.34489103797557,37.42091502191041,157.1722217616333,111.62594379799084,45.54627796364244,2.847231474929164,1.412970332273232,mp-569446,569446
3047,ScCo3B2,5.80666667,-0.5463210047222221,0.0115183,0,0,222.59991368244488,222.4893261845962,131.56298767870337,127.01474835447765,129.2888680165905,157.1722217616333,111.62594379799084,45.54627796364244,2.847231474929164,1.412970332273232,mp-4938,4938
3048,AlFe2Ni,7.15918299,-0.09435642249999976,4.2439238,3,2,148.21760070943785,148.21760070943785,36.648507368080544,-1476.432837039537,-719.8921648357282,157.1722217616333,111.62594379799084,45.54627796364244,2.847231474929164,1.412970332273232,mp-31186,31186
3049,Zr2Ag,4.21032925,-0.10582540555555535,0.0016319,0,0,101.33411670521315,101.24674082791552,45.33692854353704,35.042858816998795,40.189893680267915,157.1722217616333,111.62594379799084,45.54627796364244,2.847231474929164,1.412970332273232,mp-2221,2221
3050,RbFeS2,2.32850311,-1.0088308034375002,2.57367285,2,1,18.45618783071295,15.013996908844636,9.590941117043647,4.636183124292387,7.113562120668017,157.1722217616333,111.62594379799084,45.54627796364244,2.847231474929164,1.412970332273232,mp-5372,5372
3051,Nb3Au2,5.56798434,-0.14748805600000026,0.0364395,0,0,172.90286798342353,172.8970626924333,62.364047765083306,59.25664147378775,60.810344619435526,157.1722217616333,111.62594379799084,45.54627796364244,2.847231474929164,1.412970332273232,mp-2123,2123
3052,Mg2AgRh,4.75663929,-0.38046713416666655,4.26e-05,0,0,89.06259445981762,89.06259445981765,37.227144884026195,10.0642928570482,23.6457188705372,157.1722217616333,111.62594379799084,45.54627796364244,2.847231474929164,1.412970332273232,mp-864933,864933
3053,CaF2,-1.01894632,-4.224281094999999,3.49e-05,0,0,76.54559136565447,76.54559136565449,40.23656066892613,36.638930807491626,38.437745738208875,7.051257756683626,4.691202896683639,2.360054859999986,1.5362470048790937,1.412970332273232,mp-2741,2741
3054,Na3P11,2.80471942,-0.23935823027298855,0.0,0,0,13.60190298213187,13.24794988690702,6.389537816382055,6.057762033172645,6.22364992477735,157.1722217616333,111.62594379799084,45.54627796364244,2.847231474929164,1.412970332273232,mp-473,473
3055,Si5Rh4,8.25298902,-0.6924982261111118,0.0010113,0,0,181.3589152115274,180.47225646186,91.99272702337308,87.8992492281153,89.94598812574418,157.1722217616333,111.62594379799084,45.54627796364244,2.847231474929164,1.412970332273232,mp-568792,568792
3056,CdS,2.88539394,-0.7504331415625001,0.0007917,0,0,73.14285899580703,73.14285899580705,33.88935734007807,33.83749604099879,33.86342669053843,157.1722217616333,111.62594379799084,45.54627796364244,2.847231474929164,1.412970332273232,mp-370,370
3057,BiS2,4.79604174,-0.5917912854166669,0.0003794,0,0,29.127141065826045,16.55406568770494,17.421295556963347,5.688062387917837,11.554678972440591,53.20898872333334,40.90968650333335,12.299302220000003,3.507036101895731,1.412970332273232,mp-971673,971673
3058,NaNO3,-0.51481965,-1.367392630310345,0.0012468,0,0,28.599015566821624,26.193284688862835,15.172197524153848,11.618863755549325,13.395530639851586,5.5546041833298085,3.3450191666631413,2.209585016666667,1.4864672941799517,1.412970332273232,mp-4531,4531
3059,TlCuO2,1.86933762,-0.9500120933333331,2.95e-05,0,0,28.311604991172004,5.820094138257327,13.431442631855983,2.81386098709482,8.122651809475402,157.1722217616333,111.62594379799084,45.54627796364244,2.847231474929164,1.412970332273232,mp-997042,997042
3060,MgTi2O5,1.99527746,-3.4263178977083335,0.0006061,0,0,163.94926757513971,159.54274947813713,72.77326821114285,69.82579995671561,71.29953408392923,28.596100423333336,23.407049940000004,5.189050483333333,2.27794874466774,1.412970332273232,mp-28232,28232
3061,HfZrO4,2.08064772,-3.877764362499999,1.2e-06,0,0,207.95130600713196,200.75761653707417,109.70667038587791,81.82675670223013,95.76671354405403,157.1722217616333,111.62594379799084,45.54627796364244,2.847231474929164,1.412970332273232,mp-754134,754134
3062,TiMnCo2,6.02392753,-0.2934188078160931,4.9733084,4,3,173.05234227438063,173.05234227426504,81.72748775391678,73.55261109945513,77.64004942668595,157.1722217616333,111.62594379799084,45.54627796364244,2.847231474929164,1.412970332273232,mp-865537,865537
3063,ZrW2,5.39058596,-0.14526104333333242,8.01e-05,0,0,215.19171380671767,215.19171380671767,87.34917743331565,86.2828379760271,86.81600770467136,157.1722217616333,111.62594379799084,45.54627796364244,2.847231474929164,1.412970332273232,mp-675,675
3064,LiAl2Ni,7.94366625,-0.47040982333333314,0.0004063,0,0,101.99829982666928,101.9982998266693,71.62632709683118,46.59718473630606,59.11175591656862,157.1722217616333,111.62594379799084,45.54627796364244,2.847231474929164,1.412970332273232,mp-862318,862318
3065,TiCoGe,7.06730489,-0.5960383611111111,0.3173137,3,1,171.54371583260797,171.23358002203267,79.70238965320065,76.45220441740936,78.07729703530501,157.1722217616333,111.62594379799084,45.54627796364244,2.847231474929164,1.412970332273232,mp-22769,22769
3066,Y(CoB)2,5.35506598,-0.561189748999999,0.0062069,0,0,151.2768128489114,139.9336995130487,108.3927479786383,102.62496190657878,105.50885494260854,157.1722217616333,111.62594379799084,45.54627796364244,2.847231474929164,1.412970332273232,mp-3515,3515
3067,Sc2GaRu,5.34615717,-0.6024813231249997,1.2e-06,0,0,112.74014844779056,112.74014844779057,41.64460345967398,34.28312933240445,37.963866396039215,157.1722217616333,111.62594379799084,45.54627796364244,2.847231474929164,1.412970332273232,mp-862311,862311
3068,TlI,1.83063628,-0.8705479241666669,0.0004326,0,0,11.81756926226182,11.81756926226182,6.754967411913628,4.152037171691323,5.453502291802476,17.55962235001222,10.140859746679086,7.418762603333133,2.72374055360145,1.412970332273232,mp-571102,571102
3069,KTl2Bi,4.17151499,-0.1974341849166663,0.000201,0,0,22.712835944431202,22.71283594443119,6.759669605315502,5.06632241967578,5.9129960124956416,157.1722217616333,111.62594379799084,45.54627796364244,2.847231474929164,1.412970332273232,mp-866169,866169
3070,Sc2S3,2.1137944,-2.2146405513749996,6.58e-05,0,0,56.00477782228873,55.8016679754203,37.61138848932858,36.72250621989606,37.16694735461232,22.76201019009454,14.769361593441735,7.992648596652806,2.827127269270488,1.412970332273232,mp-401,401
3071,MnI2,2.43286702,-0.7063810159770121,5.0008468,1,1,12.044163938712469,3.5965985895505574,7.300741673797622,1.0251820340084783,4.16296185390305,10.642402766660775,5.667631159994187,4.9747716066665895,2.2304196032734716,1.412970332273232,mp-28013,28013
3072,Cu3Sb,8.5920194,0.032494468750000394,0.00106375,0,0,101.67993728294503,88.28438409327396,27.479085267925537,22.641977622084607,25.060531445005072,157.1722217616333,111.62594379799084,45.54627796364244,2.847231474929164,1.412970332273232,mp-20900,20900
3073,InNi2,8.63010913,-0.01606076000000023,0.0005061,0,0,136.46046695084968,135.76923772816195,31.820513174661993,11.78674637496422,21.803629774813107,157.1722217616333,111.62594379799084,45.54627796364244,2.847231474929164,1.412970332273232,mp-21092,21092
3074,GaAs,2.78656561,-0.3377175137499995,0.00013715,0,0,59.83027495537932,59.775084035208856,40.78449008180028,39.254377438072375,40.01943375993633,71.1659437100077,2.0845134600076936,69.08143025,8.311523942695466,0.5154393675302658,mp-8883,8883
3075,NbZn2,3.72058642,-0.1617915674999999,0.0001226125,0,0,140.71752398139344,140.62980500604237,82.37374861803255,82.28532295621334,82.32953578712295,157.1722217616333,111.62594379799084,45.54627796364244,2.847231474929164,1.412970332273232,mp-30798,30798
3076,Zn2PdRh,4.08073273,-0.5148492624999994,0.0013246,0,0,158.90381890262123,158.90381890262125,69.48405161817863,61.44489807680108,65.46447484748985,157.1722217616333,111.62594379799084,45.54627796364244,2.847231474929164,1.412970332273232,mp-864839,864839
3077,MnVAs,6.39595148,-0.2495298459770119,3.1260579,4,2,106.85745853397647,106.09279552640714,26.494144929729178,84.37205747047717,55.433101200103174,157.1722217616333,111.62594379799084,45.54627796364244,2.847231474929164,1.412970332273232,mp-20791,20791
3078,TiTlPS5,2.09008658,-1.0303736857031245,0.00081745,0,0,12.451079369741734,7.393188688814951,6.0425539555405745,2.7916141491757083,4.417084052358142,157.1722217616333,111.62594379799084,45.54627796364244,2.847231474929164,1.412970332273232,mp-558747,558747
3079,Li2SnPt,5.91446419,-0.5052547379166668,0.0001522,0,0,71.69133197752184,71.69133197752184,28.504282241540306,-42.15378333315651,-6.824750545808103,157.1722217616333,111.62594379799084,45.54627796364244,2.847231474929164,1.412970332273232,mp-866202,866202
3080,HfMgPd2,5.29328423,-0.72522836,0.0,0,0,127.49693038124195,127.49693038124192,40.462227529229025,35.10066657008744,37.78144704965823,157.1722217616333,111.62594379799084,45.54627796364244,2.847231474929164,1.412970332273232,mp-865049,865049
3081,VGaRu2,7.47970496,-0.4701166768749996,6.15e-05,0,0,239.0124610734569,239.0124610734569,112.1924699217121,112.19207717148885,112.19227354660048,157.1722217616333,111.62594379799084,45.54627796364244,2.847231474929164,1.412970332273232,mp-865586,865586
3082,MgPd5,4.38722518,-0.3342731349999995,5.73e-05,0,0,142.33368877099605,142.33303507855948,45.13394577965881,44.034249371026256,44.58409757534253,157.1722217616333,111.62594379799084,45.54627796364244,2.847231474929164,1.412970332273232,mp-977059,977059
3083,LiCuF4,-1.8377415,-2.212385635555555,0.00012035,0,0,31.863279625141065,23.30273031041874,20.805036092296525,16.29332019726879,18.54917814478266,157.1722217616333,111.62594379799084,45.54627796364244,2.847231474929164,1.412970332273232,mp-753257,753257
3084,K2Na4Ge2O7,-0.03204157,-2.0550056793137927,1.6475e-05,0,0,46.11465320903417,46.0450450179843,23.1673433600568,22.638654320816716,22.90299884043676,157.1722217616333,111.62594379799084,45.54627796364244,2.847231474929164,1.412970332273232,mp-554107,554107
3085,BaCa4(CuN2)2,3.11687365,-0.756654069318182,0.00032905,0,0,65.03239333040712,63.45278244060967,32.232001240648984,30.073542159598528,31.152771700123758,157.1722217616333,111.62594379799084,45.54627796364244,2.847231474929164,1.412970332273232,mp-569603,569603
3086,Zn(SbO2)2,3.42618071,-1.7498168192857138,2.855e-05,0,0,46.26709572354222,42.30282849188257,17.55949344288416,10.447757778019966,14.003625610452064,157.1722217616333,111.62594379799084,45.54627796364244,2.847231474929164,1.412970332273232,mp-5388,5388
3087,Ba2ZnF6,-0.5430189,-3.623769103888889,5.1e-06,0,0,58.03559701950022,56.79436465498454,25.404957790906185,22.991712574340177,24.198335182623183,157.1722217616333,111.62594379799084,45.54627796364244,2.847231474929164,1.412970332273232,mp-7739,7739
3088,BaGePt,4.46071072,-0.8979624116666667,0.001299825,0,0,64.95091487845119,64.95091487845117,22.77170155925086,21.696594795912283,22.234148177581574,157.1722217616333,111.62594379799084,45.54627796364244,2.847231474929164,1.412970332273232,mp-22151,22151
3089,AlPd2,6.17279053,-0.8311608641666665,1.1e-05,0,0,158.55996353594435,157.494121117336,52.691184543478734,49.71935507928468,51.20526981138171,157.1722217616333,111.62594379799084,45.54627796364244,2.847231474929164,1.412970332273232,mp-2824,2824
3090,Si5Pt12,8.3478833,-0.5790514732352935,0.00012675,0,0,205.05117854820173,204.88979239865648,43.89744986658194,34.11186441227731,39.004657139429625,157.1722217616333,111.62594379799084,45.54627796364244,2.847231474929164,1.412970332273232,mp-567618,567618
3091,Mn2AlB2,8.72129842,-0.4699861168390811,0.8288275,2,1,220.87676605269425,214.6932385464027,161.37600562936692,153.88787101951567,157.6319383244413,157.1722217616333,111.62594379799084,45.54627796364244,2.847231474929164,1.412970332273232,mp-7892,7892
3092,Ge,4.53243935,0.0,0.00010755,0,0,58.977842125557785,58.9778421255578,46.75297293562584,43.96256133184121,45.357767133733525,25.853525090000034,0.0,25.853525090000034,5.084636180691794,1.412970332273232,mp-32,32
3093,Y2RuRh,4.9539713,-0.5845749895833325,0.0050152,0,0,108.44206389996872,108.44206389996874,47.90485404151773,45.89860816062354,46.90173110107064,157.1722217616333,111.62594379799084,45.54627796364244,2.847231474929164,1.412970332273232,mp-866173,866173