,formula_pretty,efermi,formation_energy_per_atom,total_magnetization_normalized_formula_units,num_magnetic_sites,num_unique_magnetic_sites,k_voigt,k_reuss,g_voigt,g_reuss,g_vrh,e_total,e_ionic,e_electronic,n,e_ij_max,material_id,b
1011,Cr5O12,0.23751237,-1.807032697352941,5.999942775,20,3,59.71174231217185,58.13298620648691,41.77319059358624,40.9445209470195,41.35885577030287,157.1722217616333,111.62594379799084,45.54627796364244,2.847231474929164,1.412970332273232,mp-13869,13869
1012,NiMoP2,9.65331056,-0.5754818516666669,0.00077265,0,0,190.12851547220495,188.51688679314415,107.42395977781563,101.3478097157084,104.385884746762,157.1722217616333,111.62594379799084,45.54627796364244,2.847231474929164,1.412970332273232,mp-10208,10208
1013,Li2CdSn,4.48733032,-0.32264944291666664,0.0011685,0,0,36.73894386257698,36.738943862577,26.575712856033533,15.116871616563301,20.846292236298417,157.1722217616333,111.62594379799084,45.54627796364244,2.847231474929164,1.412970332273232,mp-12580,12580
1014,Al3Pd5,6.61799482,-0.8516220056249999,0.00030025,0,0,155.6391124490123,155.5940078804592,52.38881180329647,46.76759744845105,49.57820462587376,157.1722217616333,111.62594379799084,45.54627796364244,2.847231474929164,1.412970332273232,mp-16523,16523
1015,Ti2C,6.03744955,-0.643809233055555,0.00077355,0,0,138.93789233321922,138.93789233321917,85.72838195413857,70.64792793334942,78.188154943744,157.1722217616333,111.62594379799084,45.54627796364244,2.847231474929164,1.412970332273232,mp-10721,10721
1016,SiF4,-4.95091498,-3.474476041999999,0.0,0,0,4.934290234073002,4.934290234073002,3.241890443917268,1.7495077992623862,2.495699121589827,2.168899630067178,0.5386042933994762,1.630295336667702,1.276830191007286,0.07113713714292379,mp-1818,1818
1017,Mg(BeN)2,5.57821971,-1.1925267340000005,5.41e-05,0,0,184.99550108184457,184.9045212302679,169.4768331296443,162.7048004641642,166.09081679690425,12.115208170013199,7.409864336679864,4.705343833333334,2.1691804519987112,1.412970332273232,mp-11917,11917
1018,LiRhO2,4.05798385,-1.560123683333333,8.6e-06,0,0,126.05873517930387,116.47024965379052,52.867850697279486,44.12408278137914,48.49596673932931,37.42977026646019,29.846222503126853,7.5835477633333355,2.7538242070497776,1.412970332273232,mp-14115,14115
1019,NbPt3,7.23345354,-0.6445364881249995,1.5175e-05,0,0,249.91132817611845,249.89450776814786,102.75775582691982,97.56797289720453,100.16286436206218,157.1722217616333,111.62594379799084,45.54627796364244,2.847231474929164,1.412970332273232,mp-12700,12700
1020,Sc3SnB,5.16917489,-0.6085225358333333,0.0025938,0,0,82.69104550902483,82.69104550902483,69.91281035863622,68.27310707093775,69.09295871478699,157.1722217616333,111.62594379799084,45.54627796364244,2.847231474929164,1.412970332273232,mp-10139,10139
1021,LiBe,2.45611103,0.16695820083333324,8.235e-05,0,0,46.257263531877385,18.327820134924835,44.62743060628589,7.002658945467697,25.815044775876792,157.1722217616333,111.62594379799084,45.54627796364244,2.847231474929164,1.412970332273232,mp-1001825,1001825
1022,TiNiGe,7.6656837,-0.6761965602777771,1.1225e-05,0,0,157.85957042023338,156.9130161477133,84.78793043279444,81.93681857754417,83.3623745051693,157.1722217616333,111.62594379799084,45.54627796364244,2.847231474929164,1.412970332273232,mp-16356,16356
1023,BaLiAs,2.47973006,-0.9467169327777777,0.0,0,0,34.04764201332202,34.012820882856026,23.583878281897302,21.856500595531852,22.720189438714577,25.1656778700968,14.909251550096798,10.256426320000003,3.202565584027906,0.49695463770668413,mp-10616,10616
1024,ScRh3C,6.64454772,-0.4951886369999997,0.0010156,0,0,214.96776736378143,214.96776736378143,91.2194907951479,89.7236649150629,90.47157785510541,157.1722217616333,111.62594379799084,45.54627796364244,2.847231474929164,1.412970332273232,mp-10712,10712
1025,BaO,2.03346425,-2.797879155,3e-07,0,0,66.80416546313722,66.5020555997814,30.55843081455812,26.048374661071687,28.303402737814903,157.1722217616333,111.62594379799084,45.54627796364244,2.847231474929164,1.412970332273232,mp-1008500,1008500
1026,SrVO3,4.67096136,-2.8794546823333342,0.999467,1,1,186.20830262313493,186.2083026231348,66.73164110138464,28.26086003532798,47.49625056835631,157.1722217616333,111.62594379799084,45.54627796364244,2.847231474929164,1.412970332273232,mp-18717,18717
1027,CaSbAu,5.45270015,-0.8648060216666664,2.85e-06,0,0,60.21285918089498,46.39627824819321,25.341785347922823,22.14703453185211,23.74440993988747,157.1722217616333,111.62594379799084,45.54627796364244,2.847231474929164,1.412970332273232,mp-16245,16245
1028,NdFe5,4.48748257,0.039659048333332926,10.5951166,6,3,109.03618768463745,106.62609338030889,58.922807117108825,58.32489638082564,58.62385174896723,157.1722217616333,111.62594379799084,45.54627796364244,2.847231474929164,1.412970332273232,mp-11382,11382
1029,TiB,3.47911877,0.7207276087499999,0.0071934,0,0,101.49901937992733,101.49901937992728,-7.269007048123866,2.252208530269087,-2.5083992589273896,157.1722217616333,111.62594379799084,45.54627796364244,2.847231474929164,1.412970332273232,mp-10143,10143
1030,GaSb,3.77480409,-0.2527740787499999,0.000132,0,0,44.65379386094294,44.653793860942926,30.94298233692316,28.94954275809882,29.94626254751099,22.993965239999977,1.386955280000002,21.60700995999997,4.648334105892128,0.2731500000000003,mp-1156,1156
1031,Y2C3,5.43559367,-0.256649187666666,0.0001762,0,0,119.62176981131256,119.62176979236479,65.68075852850237,58.82501721925056,62.25288787387646,157.1722217616333,111.62594379799084,45.54627796364244,2.847231474929164,1.412970332273232,mp-1695,1695
1032,V3Pd,6.06497912,-0.13274766625000112,8.9e-05,0,0,196.9498467609293,196.94984676092923,76.90546996934313,70.18440637592629,73.54493817263472,157.1722217616333,111.62594379799084,45.54627796364244,2.847231474929164,1.412970332273232,mp-1664,1664
1033,Ca,1.92337962,0.006076730000000197,0.00693305,0,0,17.506634533113594,17.478378969868892,10.05218878653046,9.375638653960726,9.713913720245593,157.1722217616333,111.62594379799084,45.54627796364244,2.847231474929164,1.412970332273232,mp-132,132
1034,MoS2,-1.80012561,-1.1995432954166674,0.0001737,0,0,21.56979467056574,1.5214701232774412,14.442058780979531,-0.07842946680036401,7.181814657089584,4.4977699166645975,0.04077038333126406,4.456999533333333,2.1111607076045473,0.2981868917427232,mp-1023924,1023924
1035,SnSb,6.93375902,-0.08390630750000039,0.000627,0,0,50.13337155969057,50.13337155969057,26.798301376876317,19.55910512329756,23.17870325008694,157.1722217616333,111.62594379799084,45.54627796364244,2.847231474929164,1.412970332273232,mp-10635,10635
1036,Mn3ZnN,5.85545387,-0.27618608575861997,4.2050176,3,1,194.9234923826531,194.9234923826531,114.8044999023245,110.47233939661577,112.63841964947014,157.1722217616333,111.62594379799084,45.54627796364244,2.847231474929164,1.412970332273232,mp-15805,15805
1037,Hf5Si3,6.43407582,-0.7179173056250008,0.0009597,0,0,141.86896440712445,140.9659772014734,88.32647145995652,86.75086835327487,87.5386699066157,157.1722217616333,111.62594379799084,45.54627796364244,2.847231474929164,1.412970332273232,mp-15965,15965
1038,Li2PNO2,2.28668453,-2.173641083333333,0.0002746,0,0,89.58242814255581,88.59109330336035,62.762427463381556,58.184436502603,60.47343198299228,6.748860140000001,3.77257258,2.97628756,1.7251920356876216,0.8691719532405542,mp-1020019,1020019
1039,Ga,2.7852249,0.0,5.7e-06,0,0,49.87671319976616,49.45583792614468,35.03463307478778,34.07566451142955,34.555148793108664,157.1722217616333,111.62594379799084,45.54627796364244,2.847231474929164,1.412970332273232,mp-142,142
1040,ZrZnNi4,6.56790083,-0.4136180200000001,0.0014736,0,0,166.81991145510938,166.81991145510938,72.54623830134123,69.62451390978254,71.08537610556189,157.1722217616333,111.62594379799084,45.54627796364244,2.847231474929164,1.412970332273232,mp-11533,11533
1041,Li2CuSb,6.07379469,-0.4727892766666666,0.0016967,0,0,53.29076992134984,53.29076992134984,40.96452362065961,27.53367362876705,34.24909862471333,29.770100684325172,8.933390667658783,20.83671001666639,4.564724528015507,0.6411738024816966,mp-15988,15988
1042,Be12Pd,5.0019293,-0.06609085384615444,0.0002701,0,0,124.18138862579205,124.05635895533392,92.07769748413754,63.08371841532869,77.58070794973312,157.1722217616333,111.62594379799084,45.54627796364244,2.847231474929164,1.412970332273232,mp-12666,12666
1043,ZrBe5,3.87725856,-0.24109311249999976,1.44e-05,0,0,126.46696669072486,126.40614241013856,116.08948430804645,105.98015453792205,111.03481942298424,157.1722217616333,111.62594379799084,45.54627796364244,2.847231474929164,1.412970332273232,mp-11283,11283
1044,Ba2CuC(NO)2,2.34049439,-1.4730403574999995,0.0001429,0,0,68.200679295118,64.14996459822083,25.43764340269176,-0.5379578682217997,12.44984276723498,157.1722217616333,111.62594379799084,45.54627796364244,2.847231474929164,1.412970332273232,mp-1021669,1021669
1045,Na3P,1.44909869,-0.3317955544971265,4.8e-06,0,0,25.60508903798133,25.592435391993316,14.95962721460827,13.341609219747605,14.150618217177938,17.147733176659433,7.185076536654054,9.962656640005378,3.1563676338483413,1.412970332273232,mp-1598,1598
1046,YAsPt,6.06947406,-1.2070435130555548,0.000168625,0,0,117.44327784795996,103.35978453299164,46.510762118350534,44.76628959259551,45.63852585547302,157.1722217616333,111.62594379799084,45.54627796364244,2.847231474929164,1.412970332273232,mp-15695,15695
1047,SiNi2,10.11620412,-0.5257937291666662,6.725e-06,0,0,197.5721742146094,188.83546932152294,65.00504954917905,62.41546464091748,63.71025709504826,157.1722217616333,111.62594379799084,45.54627796364244,2.847231474929164,1.412970332273232,mp-1118,1118
1048,Li2SnN2,5.73018121,-0.3942923063333339,4.1e-06,0,0,116.45030915132013,111.80248004053266,90.1443829815356,81.67141403639489,85.90789850896525,16.88458892331981,10.475600246653142,6.4089886766666675,2.5315980480057783,1.412970332273232,mp-1029385,1029385
1049,RuO2,6.10177003,-1.2696074549999992,0.0005869,0,0,281.38531205916087,281.3853120591609,186.273566723347,182.70811934392123,184.49084303363412,157.1722217616333,111.62594379799084,45.54627796364244,2.847231474929164,1.412970332273232,mp-1008785,1008785
1050,CuS2,6.24700213,-0.42892531458333377,0.0002278,0,0,77.48977616085091,77.48977616085092,35.405309017130904,33.78482842786179,34.59506872249635,157.1722217616333,111.62594379799084,45.54627796364244,2.847231474929164,1.412970332273232,mp-1068,1068
1051,ZrB6,6.82332535,-0.020877016428570982,0.0068807,0,0,179.2738818615928,179.27388186159283,79.42240561105996,1.585373740902184,40.50388967598107,157.1722217616333,111.62594379799084,45.54627796364244,2.847231474929164,1.412970332273232,mp-1001788,1001788
1052,TlAs,3.32895789,0.11668702583333346,0.0014354,0,0,38.515102441771155,38.51510244177115,20.083553304904893,16.826686122553262,18.455119713729076,157.1722217616333,111.62594379799084,45.54627796364244,2.847231474929164,1.412970332273232,mp-1007770,1007770
1053,Cu2SnTe3,5.13882538,-0.34850452250000075,2.14e-05,0,0,45.74787169225239,45.73000983947452,21.304303435269208,18.53452075921536,19.919412097242287,157.1722217616333,111.62594379799084,45.54627796364244,2.847231474929164,1.412970332273232,mp-13089,13089
1054,Al2Pt,7.19129498,-0.8940339766666661,0.0004583,0,0,128.64275225801055,128.6427522580106,39.15431240601985,38.01988221727121,38.58709731164553,157.1722217616333,111.62594379799084,45.54627796364244,2.847231474929164,1.412970332273232,mp-1502,1502
1055,Cr2GaN,6.52203524,-0.39117961812499846,2.016413,4,1,172.58963632610931,170.23725077382045,79.33893459863904,77.77769019722234,78.55831239793069,157.1722217616333,111.62594379799084,45.54627796364244,2.847231474929164,1.412970332273232,mp-10371,10371
1056,TiO2,3.26296737,-3.464407361944444,3.6925e-05,0,0,214.4117086763322,204.39552938004215,123.45242505582996,95.19911151771613,109.32576828677304,157.1722217616333,111.62594379799084,45.54627796364244,2.847231474929164,1.412970332273232,mp-1041565,1041565
1057,CuBS2,6.42471159,-0.592683841354166,5.49e-05,0,0,114.25775281044905,114.18694735219287,66.52178471371174,59.99779667456692,63.259790694139326,9.64586189336952,1.2986187700361869,8.347243123333334,2.8891595877232765,0.05812904437453512,mp-12954,12954
1058,Ca3MnN3,4.68771462,-1.0259644011330045,1.9999465,2,1,87.89091800689197,87.85507283800055,51.503031144636346,50.17168455688154,50.83735785075894,157.1722217616333,111.62594379799084,45.54627796364244,2.847231474929164,1.412970332273232,mp-14763,14763
1059,Na3SbS4,1.64420969,-1.0081424065193962,0.0004131,0,0,19.541422055512115,19.54142205551211,4.90378733053142,0.6128285624263167,2.7583079464788685,157.1722217616333,111.62594379799084,45.54627796364244,2.847231474929164,1.412970332273232,mp-10167,10167
1060,SrHfO3,2.13461354,-3.810271535333334,0.0,0,0,157.1400959762188,155.64902899019648,90.01283729972471,88.22620700969526,89.11952215470998,36.873854706675274,32.517569773341954,4.356284933333321,2.0871715150732872,1.412970332273232,mp-13109,13109
1061,NbS2,3.52598139,-1.3491724370833325,0.00669975,0,0,44.70286538432605,1.852939423816643,26.58033721527276,2.433753869057665,14.507045542165212,157.1722217616333,111.62594379799084,45.54627796364244,2.847231474929164,1.412970332273232,mp-10033,10033
1062,Hf(CuP)2,7.75771403,-0.6150058953333343,1.6e-06,0,0,132.96928258993302,132.86294232351685,67.09575782734207,62.22603337709586,64.66089560221897,157.1722217616333,111.62594379799084,45.54627796364244,2.847231474929164,1.412970332273232,mp-15986,15986
1063,VNi2,7.60642183,-0.24225136666666577,0.0099314,0,0,210.49545534584743,209.75147597267323,97.75626554184127,73.54020504256243,85.64823529220186,157.1722217616333,111.62594379799084,45.54627796364244,2.847231474929164,1.412970332273232,mp-11531,11531
1064,Ni3Sb,9.87469902,-0.15295730499999927,0.0025595,0,0,165.11711159200618,165.11711159200635,51.556866558050245,-28.1456942748851,11.705586141582573,157.1722217616333,111.62594379799084,45.54627796364244,2.847231474929164,1.412970332273232,mp-10260,10260
1065,CuN,6.40327797,0.8419680825000002,0.0023951,0,0,205.0847529774843,205.0847529774843,63.91420492180531,63.42480854140728,63.66950673160629,157.1722217616333,111.62594379799084,45.54627796364244,2.847231474929164,1.412970332273232,mp-1008922,1008922
1066,Mo2S3,7.641957,-0.9858620678750001,0.01038525,0,0,101.75601021397334,96.86719000339698,63.67675132302109,58.837123952436,61.25693763772854,157.1722217616333,111.62594379799084,45.54627796364244,2.847231474929164,1.412970332273232,mp-1627,1627
1067,Ca3MoN3,4.71169843,-0.9807583621428577,0.830626,2,1,56.64690165004012,55.55188307775469,28.196017649936962,18.179946032676384,23.187981841306673,157.1722217616333,111.62594379799084,45.54627796364244,2.847231474929164,1.412970332273232,mp-1029719,1029719
1068,Li2ZnGe,4.66915429,-0.3224003004166667,0.0010421,0,0,48.4053972494822,48.4053972494822,43.62470627654672,34.60713160330506,39.11591893992589,52.84958500666676,13.873394696666663,38.9761903100001,6.243091406506884,1.2487100000000018,mp-12411,12411
1069,Mg(ScSe2)2,2.42786536,-1.8432942527678564,6e-07,0,0,57.48468355883574,57.48468355883574,21.751290372589292,18.27992184137012,20.015606106979703,157.1722217616333,111.62594379799084,45.54627796364244,2.847231474929164,1.412970332273232,mp-1001019,1001019
1070,Y(Al2Cu)4,7.82542769,-0.3114289358974362,0.0037967,0,0,100.80408499859433,100.79195276066174,60.37713907964378,59.9493918614954,60.16326547056959,157.1722217616333,111.62594379799084,45.54627796364244,2.847231474929164,1.412970332273232,mp-11029,11029
1071,KAlTe2,2.87935881,-0.9961398194999997,0.00053595,0,0,17.01228792576935,15.773257212278258,11.46725462910894,10.161931159208835,10.814592894158888,9.951749403345366,3.847425040012031,6.104324363333334,2.470693093715473,1.412970332273232,mp-10165,10165
1072,Sr2FeSO3,2.31476579,-2.2320741752083335,4.00225825,4,2,77.77055369359397,75.33383000365377,14.234927443744384,290.4583541129709,152.34664077835762,157.1722217616333,111.62594379799084,45.54627796364244,2.847231474929164,1.412970332273232,mp-1046652,1046652
1073,LiPt,4.34731637,-0.6075527916666661,8.2e-05,0,0,121.36427333829185,108.05007575894636,59.339928721100264,43.359521370056726,51.349725045578495,157.1722217616333,111.62594379799084,45.54627796364244,2.847231474929164,1.412970332273232,mp-11807,11807
1074,MnNi3,7.2372785,-0.11558998198275816,4.8971813,4,2,174.0800562945449,174.08005629454487,102.26728662858132,84.49776063459109,93.3825236315862,157.1722217616333,111.62594379799084,45.54627796364244,2.847231474929164,1.412970332273232,mp-11501,11501
1075,MgGeAs2,2.40380563,-0.2684550625000002,0.00058605,0,0,52.29601005834908,51.943240636079594,27.104756821707824,23.528137137141123,25.316446979424473,157.1722217616333,111.62594379799084,45.54627796364244,2.847231474929164,1.412970332273232,mp-1016200,1016200
1076,Zr6Al2Co,4.74265402,-0.34289168166666667,0.006697,0,0,106.51728107208103,106.42897772961481,50.96576383285366,50.88409100537216,50.92492741911291,157.1722217616333,111.62594379799084,45.54627796364244,2.847231474929164,1.412970332273232,mp-12760,12760
1077,AlCo3C,7.12479403,-0.22361323899999946,0.0001511,0,0,234.45450965355323,234.4545096535532,121.20752744518094,111.79576103983077,116.50164424250585,157.1722217616333,111.62594379799084,45.54627796364244,2.847231474929164,1.412970332273232,mp-10037,10037
1078,RbPrSe2,1.24394201,-1.9576449342968743,9e-07,0,0,32.2786912998557,32.042965574076185,20.677289461528648,18.713349494827565,19.695319478178106,157.1722217616333,111.62594379799084,45.54627796364244,2.847231474929164,1.412970332273232,mp-10778,10778
1079,TeMoWSeS2,3.05274814,-0.7853147289322919,0.00010075,0,0,33.96704150616786,2.1357034221843825,23.227190467292978,1.8006964396439082,12.513943453468443,157.1722217616333,111.62594379799084,45.54627796364244,2.847231474929164,1.412970332273232,mp-1027164,1027164
1080,GaAs,4.50731513,0.0709807587500002,0.0210111,0,0,63.142604786642664,62.92812275638447,32.936080161194454,18.986308129106554,25.961194145150504,157.1722217616333,111.62594379799084,45.54627796364244,2.847231474929164,1.412970332273232,mp-10048,10048
1081,Mg(P2Rh3)2,8.35050711,-0.726685736666667,0.0003534,0,0,205.17290173824102,203.6690509859728,62.763743286645166,58.017990260444776,60.39086677354497,157.1722217616333,111.62594379799084,45.54627796364244,2.847231474929164,1.412970332273232,mp-10440,10440
1082,CeSe2,5.47943655,-1.7358972915624993,0.4711329,2,1,58.80789892652615,58.56215034743539,26.093471340349545,22.76823948922043,24.430855414784986,157.1722217616333,111.62594379799084,45.54627796364244,2.847231474929164,1.412970332273232,mp-1011377,1011377
1083,MnAu,4.52095338,-0.011334128965517998,4.1302127,1,1,116.30838616513671,116.30099434874492,44.145097845093986,20.825266685793146,32.48518226544357,157.1722217616333,111.62594379799084,45.54627796364244,2.847231474929164,1.412970332273232,mp-12675,12675
1084,ZrVGe,5.951806,-0.6615674383333333,0.0001049,0,0,145.95010616658925,145.61533169150442,86.73142719308443,56.71260033553162,71.72201376430803,157.1722217616333,111.62594379799084,45.54627796364244,2.847231474929164,1.412970332273232,mp-10311,10311
1085,BeGeN2,4.18112476,-0.8027333556249996,4.3275e-05,0,0,191.15485001360526,191.03974768996642,146.14547810470629,142.76719369733974,144.456335901023,9.733288446666668,4.439294283333333,5.293994163333333,2.3008681325389624,1.2407792627619145,mp-1019550,1019550
1086,Li3Pd,1.19074716,-0.3062101799999999,0.0093537,0,0,36.95736836331156,36.957368363311524,18.845349701286626,4.792884010256111,11.81911685577137,157.1722217616333,111.62594379799084,45.54627796364244,2.847231474929164,1.412970332273232,mp-11489,11489
1087,MoW3(SeS3)2,2.27255455,-1.1010024477864597,0.0014019,0,0,38.30269261383492,1.3593875169307041,27.328137809655264,1.1570688993761151,14.242603354515689,157.1722217616333,111.62594379799084,45.54627796364244,2.847231474929164,1.412970332273232,mp-1029037,1029037