,formula_pretty,efermi,formation_energy_per_atom,total_magnetization_normalized_formula_units,num_magnetic_sites,num_unique_magnetic_sites,k_voigt,k_reuss,g_voigt,g_reuss,g_vrh,e_total,e_ionic,e_electronic,n,e_ij_max,material_id,b
468,Ag2HgO2,1.23015248,-0.45969821916666687,2.3e-06,0,0,44.31839810030799,35.13442544953373,12.794166514586436,11.23259357190829,12.013380043247363,10.02622668,2.038534256666667,7.987692423333335,2.8262505945746095,0.035530000000000006,mp-29816,29816
469,SrAl9Co2,6.66240821,-0.40280608805555573,0.0182701,0,0,82.7384888870446,82.65825299200209,60.100424164148336,59.02095638547075,59.560690274809545,157.1722217616333,111.62594379799084,45.54627796364244,2.847231474929164,1.412970332273232,mp-16491,16491
470,FeGe,6.47528798,-0.12215191083333465,1.3635010333333335,3,1,146.5767041384206,143.9672864059092,74.29823679260069,72.23886963804972,73.2685532153252,157.1722217616333,111.62594379799084,45.54627796364244,2.847231474929164,1.412970332273232,mp-22478,22478
471,Pb,6.41851408,0.0,0.000845,0,0,37.32908901619389,37.3290890161939,13.707896755664791,11.348299382743267,12.52809806920403,157.1722217616333,111.62594379799084,45.54627796364244,2.847231474929164,1.412970332273232,mp-20483,20483
472,BeZnO2,2.73961144,-2.3983149150000003,0.0002871,0,0,166.378946101923,163.15093747625858,89.87136820525309,75.54351896593627,82.70744358559469,9.239115546666666,5.381894963333333,3.8572205833333335,1.9639808001437624,0.48724999999999974,mp-550433,550433
473,BeSiNi2,9.78862061,-0.5082368962499997,1.6e-06,0,0,197.89140588735836,197.89140588735845,83.46982807349916,39.04634517587192,61.25808662468554,157.1722217616333,111.62594379799084,45.54627796364244,2.847231474929164,1.412970332273232,mp-865792,865792
474,PdO2,3.97654967,-0.4970417133333325,0.0003913,0,0,211.4159982357383,211.41599823573827,41.01874248588374,-2.643078991264495,19.187831747309623,157.1722217616333,111.62594379799084,45.54627796364244,2.847231474929164,1.412970332273232,mp-752735,752735
475,VAs,6.78668064,-0.49820125125000114,0.00025975,0,0,142.28222798737343,138.1113834066302,91.23339135464087,80.23914367309749,85.73626751386918,157.1722217616333,111.62594379799084,45.54627796364244,2.847231474929164,1.412970332273232,mp-19940,19940
476,V2CuO6,2.15602726,-1.985956454444445,1.0009909,3,2,62.87831176776038,29.687913466283813,34.676516491005714,20.53873429334858,27.607625392177148,157.1722217616333,111.62594379799084,45.54627796364244,2.847231474929164,1.412970332273232,mp-690658,690658
477,Sc,3.77514501,0.0,0.42761595,2,1,52.32402355485338,52.13231128348077,30.3399816841018,30.192092955084995,30.266037319593398,157.1722217616333,111.62594379799084,45.54627796364244,2.847231474929164,1.412970332273232,mp-67,67
478,ErFeO3,3.62193362,-2.8641406564999996,5.00029835,4,1,179.19377700265477,175.81219352078463,85.39574154221908,83.41804704845848,84.40689429533879,157.1722217616333,111.62594379799084,45.54627796364244,2.847231474929164,1.412970332273232,mp-19935,19935
479,Zn2CrN3,3.86977018,-0.33216565333333276,1.00123265,2,1,152.30306694760714,152.06835846500155,60.57309472778324,58.944282157194166,59.758688442488705,157.1722217616333,111.62594379799084,45.54627796364244,2.847231474929164,1.412970332273232,mp-1029458,1029458
480,LiZnPS4,1.76933536,-0.9474917341666667,1.62e-05,0,0,30.518709914995682,30.269987404702004,16.84011126358511,14.16259526815799,15.50135326587155,7.7920062933333325,3.0336335,4.758372793333333,2.181369476575056,0.18647019520556093,mp-11175,11175
481,Lu2WO6,2.14825963,-3.3474640027777776,5.3e-06,0,0,167.82513988973295,163.2015560965853,82.09251631366779,78.30517502884175,80.19884567125476,157.1722217616333,111.62594379799084,45.54627796364244,2.847231474929164,1.412970332273232,mp-555747,555747
482,SnSe,3.51551332,-0.5926720261718752,5e-07,0,0,17.010011041226814,7.313247437747788,9.575059329938966,-1.4496706297579613,4.062694350090503,157.1722217616333,111.62594379799084,45.54627796364244,2.847231474929164,1.412970332273232,mp-628773,628773
483,SiNi,10.03041751,-0.46419853874999983,1.69e-05,0,0,165.58517234014488,162.85199160066307,94.42927149138208,69.10844901766067,81.76886025452137,157.1722217616333,111.62594379799084,45.54627796364244,2.847231474929164,1.412970332273232,mp-351,351
484,HfScRu2,6.1207323,-0.7325357212500005,0.0041042,0,0,178.0227062787384,178.02270627873847,82.40835520834388,77.66679658818016,80.03757589826202,157.1722217616333,111.62594379799084,45.54627796364244,2.847231474929164,1.412970332273232,mp-865030,865030
485,Li2MnP2O7,1.89567601,-2.4547916876053635,0.0,8,2,62.99532593666951,62.00430084512687,36.14813139174312,34.71985315768946,35.43399227471629,157.1722217616333,111.62594379799084,45.54627796364244,2.847231474929164,1.412970332273232,mp-554804,554804
486,Zr2NiAs2,6.78600256,-1.01279629,0.00156845,0,0,141.45828697358422,135.7097307041414,70.35181438619253,65.65023069058945,68.001022538391,157.1722217616333,111.62594379799084,45.54627796364244,2.847231474929164,1.412970332273232,mp-8786,8786
487,NiF2,0.401624,-2.3193493649999994,2.00000385,2,1,109.00298715782253,106.83172895791851,49.785146980799816,40.75994552763887,45.27254625421934,5.203943079999999,2.694541066666666,2.509402013333333,1.5841092176151659,1.412970332273232,mp-559798,559798
488,YRu2,5.95432707,-0.3144205022222219,0.006526575,0,0,167.25521415423503,166.57359489039303,43.58271418806875,42.358346526695904,42.97053035738233,157.1722217616333,111.62594379799084,45.54627796364244,2.847231474929164,1.412970332273232,mp-568186,568186
489,Zn(CuO2)2,3.03935169,-1.085974100357143,3.1175e-05,0,0,107.85790675916084,98.2150571044781,43.006154193644186,103.71613390596879,73.36114404980648,157.1722217616333,111.62594379799084,45.54627796364244,2.847231474929164,1.412970332273232,mp-1047601,1047601
490,Ag2Se,3.05014521,-0.2245219318923605,0.000189425,0,0,59.785380707044766,55.848167664923686,13.094291532081984,10.94805297480617,12.021172253444078,157.1722217616333,111.62594379799084,45.54627796364244,2.847231474929164,1.412970332273232,mp-568936,568936
491,ZrCr2,5.37761355,-0.03228824833333258,3.68e-05,0,0,181.14266773865546,181.1426677386555,56.14393723730994,55.75650152274545,55.9502193800277,157.1722217616333,111.62594379799084,45.54627796364244,2.847231474929164,1.412970332273232,mp-903,903
492,LiFeF4,-2.15324928,-2.7429811930555563,4.9997863,2,1,27.84129139465376,24.430227825245122,10.924570063231227,27.99214069584536,19.458355379538293,157.1722217616333,111.62594379799084,45.54627796364244,2.847231474929164,1.412970332273232,mp-754662,754662
493,C,10.28673894,0.16151688750000126,0.0,0,0,435.6570345869061,435.626009029268,529.1223098898115,520.9900159549262,525.0561629223689,157.1722217616333,111.62594379799084,45.54627796364244,2.847231474929164,1.412970332273232,mp-47,47
494,SrMgF4,-1.26864175,-3.974437590277778,0.00023625,0,0,59.33480560395195,51.54068187512108,33.362620512352784,26.474412501058946,29.918516506705863,157.1722217616333,111.62594379799084,45.54627796364244,2.847231474929164,1.412970332273232,mp-15316,15316
495,Mn(SbO2)2,5.72285837,-1.8522391850615765,0.0,4,1,41.850074491808854,40.21256617489601,19.782448198059434,7.750003481720955,13.766225839890195,157.1722217616333,111.62594379799084,45.54627796364244,2.847231474929164,1.412970332273232,mp-19231,19231
496,Zr2SbP,6.59286929,-1.1809141283333329,0.00183175,0,0,113.73423168369318,112.74233293864768,71.56728880029345,61.37733847042113,66.4723136353573,157.1722217616333,111.62594379799084,45.54627796364244,2.847231474929164,1.412970332273232,mp-5137,5137
497,MgRh,5.70327452,-0.4648692800000003,0.0008546,0,0,114.63651297885923,114.63651297885922,59.8344039358157,56.182920854617855,58.008662395216774,157.1722217616333,111.62594379799084,45.54627796364244,2.847231474929164,1.412970332273232,mp-1172,1172
498,CaCuO2,3.8653765,-2.1268807149999995,0.0003672,0,0,129.45308964639045,111.69876613874284,72.21214824575166,53.73237062204558,62.97225943389862,157.1722217616333,111.62594379799084,45.54627796364244,2.847231474929164,1.412970332273232,mp-4826,4826
499,Sc2TlCd,5.18090108,-0.29106336333333305,0.5279723,0,0,63.96780175190718,63.96780175190719,32.93956324609466,10.491410686245608,21.715486966170133,157.1722217616333,111.62594379799084,45.54627796364244,2.847231474929164,1.412970332273232,mp-861918,861918
500,BaAsPt,4.31397598,-0.9953841441666663,8.84e-05,0,0,68.8856219302307,68.88562192156968,23.71549127962986,21.678045169725426,22.69676822467764,157.1722217616333,111.62594379799084,45.54627796364244,2.847231474929164,1.412970332273232,mp-8458,8458
501,Nb10C7,6.12243189,-0.4778468417647061,1.78e-05,0,0,228.10360805162463,226.29105432658312,135.23675465581047,129.91911289158904,132.57793377369975,157.1722217616333,111.62594379799084,45.54627796364244,2.847231474929164,1.412970332273232,mp-32679,32679
502,GeAs,3.74881154,-0.02795487583333352,0.0003816166666666667,0,0,31.471335315680605,8.317797796004145,21.22582838633182,8.993323798238613,15.109576092285216,14.982713684290545,0.9548550566693438,14.027858627621201,3.7453783023375893,1.412970332273232,mp-9548,9548
503,Li(Fe3P2)2,7.51058998,-0.5220142960606066,4.7874023,6,2,176.60858114052417,173.29733074399277,93.439160184993,78.27191483723595,85.85553751111448,157.1722217616333,111.62594379799084,45.54627796364244,2.847231474929164,1.412970332273232,mp-758594,758594
504,LiZn2Pd,3.01743552,-0.46564929083333295,0.0049183,0,0,87.27384533986213,87.27384533986194,38.694212391692425,2.033493604878569,20.3638529982855,157.1722217616333,111.62594379799084,45.54627796364244,2.847231474929164,1.412970332273232,mp-867250,867250
505,Hf2Au,5.30197592,-0.43743618,0.0051253,0,0,133.85935457835575,133.84215553535407,61.86265892805982,56.14144104927734,59.00204998866858,157.1722217616333,111.62594379799084,45.54627796364244,2.847231474929164,1.412970332273232,mp-30383,30383
506,NbCu3S4,3.03951651,-0.8482220390625006,0.0002335,0,0,39.66440188556724,39.664401885567244,26.914915771782308,23.16702581568155,25.04097079373193,6.7183747933333295,0.32707051333333337,6.391304279999997,2.528102901386729,0.0034466666666666626,mp-5621,5621
507,HfAl2,7.21439226,-0.4413193108333324,0.000621925,0,0,120.31221606047436,120.23816702404675,87.9284234400431,87.26547190538275,87.59694767271293,157.1722217616333,111.62594379799084,45.54627796364244,2.847231474929164,1.412970332273232,mp-12657,12657
508,Hf(SiNi)2,8.37711019,-0.7349692420000011,0.0004139,0,0,174.32250793580434,172.73629097926047,77.78141574009443,74.65921289284758,76.220314316471,157.1722217616333,111.62594379799084,45.54627796364244,2.847231474929164,1.412970332273232,mp-571147,571147
509,GaCuS2,4.40697034,-0.8287499334374999,3.5e-07,0,0,74.9248634125129,74.91604030053597,38.3810803098263,33.1651804917475,35.7731304007869,10.954907785916197,2.178814770687261,8.776093015228934,2.962447132900254,0.14097574000917007,mp-5238,5238
510,Ag2S,2.84565859,-0.21461778881944463,0.000903,0,0,32.58622259802108,12.7010887881501,9.360594371809507,5.736505189769636,7.548549780789571,157.1722217616333,111.62594379799084,45.54627796364244,2.847231474929164,1.412970332273232,mp-556225,556225
511,Na3VO4,-0.58393993,-2.2757474162068974,0.0001168,0,0,46.91319037178206,46.88360368030382,20.869160674741277,18.9151881920939,19.892174433417587,5.501399599999999,2.8516758433333336,2.6497237566666665,1.6277972099333093,0.57363,mp-752917,752917
512,Ba2CuBrO2,1.4944861,-2.365811804583334,1.03e-05,0,0,40.86768083995268,40.60792667815087,15.048806664026182,13.603983031421139,14.32639484772366,157.1722217616333,111.62594379799084,45.54627796364244,2.847231474929164,1.412970332273232,mp-552934,552934
513,KSmS2,1.54744585,-2.1102096860624995,0.0005269,0,0,41.19177182151585,40.35156259108204,27.089364628218433,25.019526046486995,26.054445337352714,157.1722217616333,111.62594379799084,45.54627796364244,2.847231474929164,1.412970332273232,mp-15783,15783
514,KYO2,1.21625083,-3.091269242416666,0.0005485,0,0,81.24891254949833,78.09947995697357,53.445116351894434,46.71873721548915,50.08192678369179,16.123656816657437,12.567523763324104,3.5561330533333333,1.885771209169695,1.412970332273232,mp-8409,8409
515,Mn3SnC,8.8738259,-0.016618001758619983,3.0241172,3,1,208.62424139627586,208.6242413962759,117.14567860424066,113.84352244600643,115.49460052512354,157.1722217616333,111.62594379799084,45.54627796364244,2.847231474929164,1.412970332273232,mp-20860,20860
516,Ba2CuO3,3.13646647,-2.2859098991666666,0.0049955,0,0,81.29486469065851,80.28626240663972,39.72708645659419,38.98173843845423,39.35441244752421,157.1722217616333,111.62594379799084,45.54627796364244,2.847231474929164,1.412970332273232,mp-8790,8790
517,Mn(FeO2)2,3.46636834,-1.7299512311330065,13.00048885,6,3,162.03392886689218,161.85247623983565,64.04826936037995,61.289054942008335,62.66866215119414,157.1722217616333,111.62594379799084,45.54627796364244,2.847231474929164,1.412970332273232,mp-33708,33708
518,RbScO2,2.08813434,-3.000575480625,7.1e-06,0,0,95.36242933784601,94.65141658830495,59.318485326612084,51.444654118453855,55.38156972253297,20.918403660007893,16.869602790007892,4.04880087,2.0121632314501725,1.412970332273232,mp-7650,7650
519,Si,8.87791422,0.29436167999999974,1.85e-06,0,0,108.13690332454672,107.00053810555166,68.21976266024687,66.77599829772707,67.49788047898697,157.1722217616333,111.62594379799084,45.54627796364244,2.847231474929164,1.412970332273232,mp-92,92
520,ZnS,1.91832271,-1.0583258982291668,0.0,0,0,69.04168807794488,69.02206772978191,33.41517982989203,31.8017778841175,32.60847885700477,9.223609266665816,3.3432558899991505,5.880353376666666,2.4249439945422795,0.14323118962856898,mp-555763,555763
521,NdB6,6.98005805,-0.47532058214285655,0.0004359,0,0,174.31637520805657,174.31637520805654,127.00499521896451,93.27459228863138,110.13979375379795,157.1722217616333,111.62594379799084,45.54627796364244,2.847231474929164,1.412970332273232,mp-1929,1929
522,BAsO4,-0.00840492,-2.1322763823611104,0.0004689,0,0,47.9310103596974,43.973927683137454,44.14826790761354,37.8091076337545,40.97868777068402,5.79938843333377,2.7380540866671037,3.061334346666667,1.7496669244935354,0.6215884318071642,mp-3277,3277
523,Fe3Se4,5.8054455,-0.4977948241964287,4.2447108,3,2,89.0025711868872,87.69251026542157,53.47117104249754,49.482373850039,51.47677244626827,157.1722217616333,111.62594379799084,45.54627796364244,2.847231474929164,1.412970332273232,mp-2780,2780
524,CaPd,3.85258217,-0.6751028799999994,0.0018892,0,0,57.5753079196014,57.57530791960141,22.487977850890655,21.33053183177472,21.90925484133269,157.1722217616333,111.62594379799084,45.54627796364244,2.847231474929164,1.412970332273232,mp-213,213
525,Ba(Cu2As)2,5.75228444,-0.32186458571428594,0.0002031,0,0,74.78941550407396,73.94464723653915,29.59369020773867,-3.2776637103416912,13.15801324869849,157.1722217616333,111.62594379799084,45.54627796364244,2.847231474929164,1.412970332273232,mp-16052,16052
526,LiTiO2,6.38889783,-2.979321660416667,3.9e-06,0,0,175.0331371475039,166.44798032715437,126.20856619586611,120.54036489091087,123.37446554338848,157.1722217616333,111.62594379799084,45.54627796364244,2.847231474929164,1.412970332273232,mp-38280,38280
527,ScZn,3.68458981,-0.3815654974999996,0.0323659,0,0,75.1904306307307,75.1904306307307,46.93956259254176,33.82589636347489,40.38272947800833,157.1722217616333,111.62594379799084,45.54627796364244,2.847231474929164,1.412970332273232,mp-11566,11566
528,Si3P2Pt,7.11034174,-0.3719417977777771,0.00262525,0,0,122.87151348480653,122.3409084321751,86.683806228992,74.31487713635708,80.49934168267454,21.071725793333343,2.078777800000001,18.992947993333342,4.358089947825004,0.4433488964091716,mp-29157,29157
529,Li2VF6,-2.5880534,-3.0753737824074077,0.9999678,1,1,22.486252151760564,10.418137525325237,0.96839378328382,-1.2955085085908005,-0.16355736265349025,157.1722217616333,111.62594379799084,45.54627796364244,2.847231474929164,1.412970332273232,mp-759839,759839
530,ZrPd,5.13288248,-0.5874348000000005,0.0009326,0,0,143.03886489486035,143.03886489486024,18.55976217495047,-14.974042558077441,1.792859808436515,157.1722217616333,111.62594379799084,45.54627796364244,2.847231474929164,1.412970332273232,mp-13496,13496
531,FeCl3,-1.00296421,-1.1403325362499999,5.0017598,8,8,3.537376662378506,1.4246092462790623,1.9475986481342298,0.4213406015531567,1.1844696248436932,157.1722217616333,111.62594379799084,45.54627796364244,2.847231474929164,1.412970332273232,mp-676241,676241
532,LaCrO3,6.36360883,-3.1966233445,1.05e-06,4,1,166.13628910330752,164.11273224169946,87.09639582967718,85.40778304049832,86.25208943508775,157.1722217616333,111.62594379799084,45.54627796364244,2.847231474929164,1.412970332273232,mp-19281,19281
533,SmAlO3,4.51792709,-3.6977947705000007,0.0,0,0,182.44943314108065,178.61374667182383,111.5816179949019,107.79022221324955,109.68592010407573,157.1722217616333,111.62594379799084,45.54627796364244,2.847231474929164,1.412970332273232,mp-7405,7405
534,Ru3W,7.7260448,-0.06950157124999912,0.00026735,0,0,308.993209299181,308.4287967935287,162.67633279087735,161.6692104816348,162.17277163625607,157.1722217616333,111.62594379799084,45.54627796364244,2.847231474929164,1.412970332273232,mp-862655,862655
535,LiVF4,0.11049836,-3.212257643055556,2.0000462,1,1,64.99148813164608,53.0363295959451,35.84116425320351,27.685416612048172,31.76329043262584,157.1722217616333,111.62594379799084,45.54627796364244,2.847231474929164,1.412970332273232,mp-755629,755629
536,SiC,8.04818831,-0.20435842285714248,2.2e-06,0,0,213.4165971229652,213.4136918789308,189.35058073365244,185.07591283161523,187.21324678263383,157.1722217616333,111.62594379799084,45.54627796364244,2.847231474929164,1.412970332273232,mp-568696,568696
537,WO2F,1.79008872,-2.2691577843750004,0.9999693,2,1,38.918644709689865,-1.0597661731828631,62.22751480274798,-4.622284194892011,28.802615303927986,157.1722217616333,111.62594379799084,45.54627796364244,2.847231474929164,1.412970332273232,mp-753367,753367
538,Li4VF7,-0.73527385,-3.1925930217361116,1.9999992,1,1,48.505205245890096,48.50520524589006,14.785918367373402,-5.12444507079913,4.830736648287136,157.1722217616333,111.62594379799084,45.54627796364244,2.847231474929164,1.412970332273232,mp-753113,753113
539,MgCdAg2,3.90019278,-0.16558596083333343,0.0004094,0,0,69.32204373111256,69.32204373111256,31.63282851523827,14.505199522866524,23.069014019052396,157.1722217616333,111.62594379799084,45.54627796364244,2.847231474929164,1.412970332273232,mp-30727,30727
540,Li2CuS2,1.78888663,-0.9869759735833341,0.96525445,2,2,26.497961333398116,26.36431634113084,11.548198822993982,10.6412575801644,11.09472820157919,157.1722217616333,111.62594379799084,45.54627796364244,2.847231474929164,1.412970332273232,mp-754086,754086
541,Sn,7.5666334,0.074196755,0.0003908,0,0,43.559318295234704,43.55931829523469,-2.4213900084164304,41.90915876090523,19.7438843762444,157.1722217616333,111.62594379799084,45.54627796364244,2.847231474929164,1.412970332273232,mp-7162,7162
542,Ca2VN3,3.34883957,-1.3662283433333329,1.5e-07,0,0,95.7987176154664,92.54880626161825,52.30824401670049,47.13940541635482,49.72382471652766,18.051545996666665,11.050263376666665,7.0012826200000005,2.645993692358317,1.412970332273232,mp-17892,17892
543,Sc3SnC,6.11995955,-0.7897202840000006,0.0008082,0,0,102.07584785649483,102.07584785649485,81.8426378650177,81.20927106758015,81.52595446629893,157.1722217616333,111.62594379799084,45.54627796364244,2.847231474929164,1.412970332273232,mp-16297,16297
544,Mn2SnO4,4.29636876,-2.070504940837438,0.00156885,4,2,128.9813575886749,127.97209249380681,51.40306524520805,45.51382322588066,48.45844423554435,157.1722217616333,111.62594379799084,45.54627796364244,2.847231474929164,1.412970332273232,mp-36884,36884
545,AlN,9.78156227,-1.4123943675000001,0.00051,0,0,254.68340649346996,254.68340649346996,236.26367351689885,198.61009924613134,217.43688638151508,157.1722217616333,111.62594379799084,45.54627796364244,2.847231474929164,1.412970332273232,mp-1330,1330