,formula_pretty,efermi,formation_energy_per_atom,total_magnetization_normalized_formula_units,num_magnetic_sites,num_unique_magnetic_sites,k_voigt,k_reuss,g_voigt,g_reuss,g_vrh,e_total,e_ionic,e_electronic,n,e_ij_max,material_id,b
3172,Cs2NiO2,0.90860745,-1.2504757161724136,0.0,2,1,21.244231420381652,20.0942939023312,8.676209400470281,8.146521800013614,8.411365600241947,9.76070930333333,6.691505759999998,3.0692035433333333,1.7519142511359775,1.412970332273232,mp-755100,755100
3173,Na4P2O7,0.60600368,-2.609686868105658,0.00013075,0,0,45.817976194722895,45.25864955324691,25.238232665933136,22.02563600738986,23.631934336661498,6.4653503599999995,4.173905836666667,2.291444523333333,1.5137518037423878,0.09464,mp-27579,27579
3174,ZnSe,0.68539559,-0.7915612536718748,3e-07,0,0,17.821648707276065,3.5637553649799134,11.738063528463446,2.8182055734954057,7.278134550979425,157.1722217616333,111.62594379799084,45.54627796364244,2.847231474929164,1.412970332273232,mp-569679,569679
3175,RbVCl3,3.43788076,-1.8713215714999998,2.9999094,2,1,16.291289144396266,15.5700610098501,6.658033549205211,-2.81573813362185,1.9211477077916803,157.1722217616333,111.62594379799084,45.54627796364244,2.847231474929164,1.412970332273232,mp-23319,23319
3176,LiNO3,0.16669918,-1.3871190626666674,0.0,0,0,40.60151686657158,38.22493086667641,26.708288695066397,23.894080299335585,25.301184497200992,7.354919140000001,4.759377126666668,2.595542013333333,1.6110685936152231,1.412970332273232,mp-8180,8180
3177,HfAlRu2,7.41306141,-0.7560818074999993,0.0107944,0,0,194.71049871408266,194.71049871399842,80.22453487676134,79.90362320625478,80.06407904150805,157.1722217616333,111.62594379799084,45.54627796364244,2.847231474929164,1.412970332273232,mp-864909,864909
3178,Li2SnAu,6.07598557,-0.5311219154166671,0.000862,0,0,57.83048357524116,57.830483575241146,31.141626553949312,16.263828918472843,23.702727736211077,157.1722217616333,111.62594379799084,45.54627796364244,2.847231474929164,1.412970332273232,mp-30405,30405
3179,TiFe2Sn,8.82910951,-0.2695705795833332,0.0002225,0,0,181.40110193904104,181.401101939041,105.79968693804896,105.7430990865268,105.77139301228789,157.1722217616333,111.62594379799084,45.54627796364244,2.847231474929164,1.412970332273232,mp-19963,19963
3180,Na5SiP3,2.80266352,-0.4130860680842912,1.595e-05,0,0,30.68139876701254,29.537695578695413,17.670468106568304,16.115949627895397,16.89320886723185,157.1722217616333,111.62594379799084,45.54627796364244,2.847231474929164,1.412970332273232,mp-5929,5929
3181,SrIn2Pd,5.82225734,-0.5967904029166666,0.0004119,0,0,51.066014858127645,47.15188861226889,24.857440689484424,22.290925465904873,23.57418307769465,157.1722217616333,111.62594379799084,45.54627796364244,2.847231474929164,1.412970332273232,mp-21024,21024
3182,Na2Pd3O4,3.29030401,-1.1454307059003825,0.0044076,0,0,102.76089584747777,83.26081318318666,42.76896379856642,27.181554163657356,34.975258981111885,13.564531806516493,3.7805531465165068,9.783978659999987,3.127935207129455,1.412970332273232,mp-27562,27562
3183,Cr(CoO3)2,0.98915905,-1.320381776666667,3.9983932,3,2,74.62751745935891,8.351886600807013,42.28998271410414,3.5317810406188737,22.910881877361508,157.1722217616333,111.62594379799084,45.54627796364244,2.847231474929164,1.412970332273232,mp-752462,752462
3184,Fe2O3F,1.07216792,-1.6580548545833327,9.00020915,6,10,141.65359325014384,130.80982865377905,66.39048423758992,55.86816039627947,61.12932231693469,157.1722217616333,111.62594379799084,45.54627796364244,2.847231474929164,1.412970332273232,mp-753167,753167
3185,Y3Al7Cu2,6.24618032,-0.5040530291666663,0.00506,0,0,88.08127976958184,87.93241036970463,63.10181447361618,62.755907400930745,62.92886093727346,157.1722217616333,111.62594379799084,45.54627796364244,2.847231474929164,1.412970332273232,mp-865990,865990
3186,Hf2Cu,5.53251976,-0.1577850166666662,0.0015177,0,0,123.3743277217595,123.36424343949267,59.76449779638355,56.26403619510983,58.014266995746695,157.1722217616333,111.62594379799084,45.54627796364244,2.847231474929164,1.412970332273232,mp-30581,30581
3187,MgNi2,6.33009596,-0.2205461637499996,0.00969475,0,0,126.85736249437257,126.85718777590999,62.128308953603955,60.12010562381526,61.12420728870961,157.1722217616333,111.62594379799084,45.54627796364244,2.847231474929164,1.412970332273232,mp-2675,2675
3188,CuAgS,4.21196866,-0.2731831865972225,1.05e-06,0,0,50.2836303824181,41.54567433629853,17.34998179065784,13.03739418311511,15.193687986886474,157.1722217616333,111.62594379799084,45.54627796364244,2.847231474929164,1.412970332273232,mp-8911,8911
3189,BeCo2Ge,6.47099425,-0.30796471000000025,0.0028277,0,0,204.548064528865,204.54806452886504,99.11502341778325,91.97613123933603,95.54557732855963,157.1722217616333,111.62594379799084,45.54627796364244,2.847231474929164,1.412970332273232,mp-862706,862706
3190,K3CuO2,1.14635573,-1.2982919027499993,0.00011225,0,0,28.859017522465404,26.91176141613472,13.021471283970376,12.362968849730944,12.692220066850659,157.1722217616333,111.62594379799084,45.54627796364244,2.847231474929164,1.412970332273232,mp-28273,28273
3191,YZn5,3.29203067,-0.2956770511111113,0.0011563,0,0,78.8790371316416,78.61357079247952,49.027331790668036,47.690633789974235,48.358982790321136,157.1722217616333,111.62594379799084,45.54627796364244,2.847231474929164,1.412970332273232,mp-30885,30885
3192,BaNbS3,4.61144807,-1.7471008148750002,3.305e-05,0,0,48.77920697759009,46.48514854671802,19.62759264896553,5.398203770061366,12.512898209513448,157.1722217616333,111.62594379799084,45.54627796364244,2.847231474929164,1.412970332273232,mp-35143,35143
3193,Rb2PtCl6,-0.39180719,-1.6357177794444442,0.0,0,0,10.971054274100265,10.971054274100267,6.214567139061857,6.160506061534719,6.187536600298288,6.698766529987274,3.614601233320613,3.084165296666661,1.7561791755588783,1.412970332273232,mp-23350,23350
3194,ScS2,2.25613096,-1.531134442083334,0.09691755,0,0,63.82455343103712,63.553386743325156,15.349034703927725,-0.7288880187816605,7.310073342573032,157.1722217616333,111.62594379799084,45.54627796364244,2.847231474929164,1.412970332273232,mp-862373,862373
3195,CrB4,7.57379904,-0.30302774933333154,0.0003135,0,0,284.62921729613953,270.2399477323416,264.706223726138,250.81327986854336,257.75975179734064,157.1722217616333,111.62594379799084,45.54627796364244,2.847231474929164,1.412970332273232,mp-27710,27710
3196,SrMg2,2.52902166,-0.08011141305555558,0.0269364,0,0,25.718748340234626,25.70628092886649,16.14612867003375,15.88418337038182,16.015156020207783,157.1722217616333,111.62594379799084,45.54627796364244,2.847231474929164,1.412970332273232,mp-2572,2572
3197,YAl3,6.08769584,-0.43394384749999954,0.0001002,0,0,73.3324786306527,71.2431877044329,51.7424697832894,48.29036401665941,50.0164168999744,157.1722217616333,111.62594379799084,45.54627796364244,2.847231474929164,1.412970332273232,mp-2451,2451
3198,BPO4,0.44506705,-2.7646443820833326,0.0006706,0,0,64.05055466971902,56.62452283178385,64.80477907949664,58.76178622688048,61.783282653188564,4.911909256655534,2.3259039466555333,2.5860053100000004,1.6081061252293023,0.39160646103315144,mp-3589,3589
3199,Be2RuPt,6.47330042,-0.5183394337499996,0.0057812,0,0,223.090565183105,223.09056518310507,106.39071642564758,102.31393352506137,104.35232497535448,157.1722217616333,111.62594379799084,45.54627796364244,2.847231474929164,1.412970332273232,mp-865021,865021
3200,NaMnF3,0.90554628,-2.969323428896552,5.000000025,4,1,60.20467025654105,59.527918307646736,27.59537273198439,26.914068262491956,27.254720497238175,157.1722217616333,111.62594379799084,45.54627796364244,2.847231474929164,1.412970332273232,mp-560242,560242
3201,MgTi2O4,6.6138062,-3.2212858859523803,1.1730671,4,1,161.57732332904007,161.57732332904004,56.50279286908141,54.13709857091766,55.31994571999954,157.1722217616333,111.62594379799084,45.54627796364244,2.847231474929164,1.412970332273232,mp-27872,27872
3202,FeRh,6.00530121,-0.041342895000000546,4.2563326,2,2,196.6905290171277,196.6905290171277,85.25498806513194,73.50950433647189,79.38224620080192,157.1722217616333,111.62594379799084,45.54627796364244,2.847231474929164,1.412970332273232,mp-1918,1918
3203,CdSiP2,3.92531796,-0.1968959354166664,4e-06,0,0,74.93553500098525,74.8146216793275,41.59528098560398,36.85722189517431,39.22625144038915,13.51971566666972,2.7005544133363877,10.819161253333334,3.289249344962059,0.15003833658563645,mp-4666,4666
3204,Mg2Cu,4.21756627,-0.10132316999999998,0.0007884,0,0,55.810522279157794,55.7826151439677,31.924302879221113,25.33405656625402,28.629179722737568,157.1722217616333,111.62594379799084,45.54627796364244,2.847231474929164,1.412970332273232,mp-865014,865014
3205,AlBMo,9.65515793,-0.449972244722223,4.4e-06,0,0,211.8539501650003,210.27154577859457,142.56790614430972,132.71625681553596,137.64208147992284,157.1722217616333,111.62594379799084,45.54627796364244,2.847231474929164,1.412970332273232,mp-7574,7574
3206,SmBr3,0.18110257,-2.295574830625,7e-07,0,0,16.211716445750593,1.6915927774805768,8.807631658578849,0.6968258048870627,4.752228731732956,157.1722217616333,111.62594379799084,45.54627796364244,2.847231474929164,1.412970332273232,mp-27976,27976
3207,CaCdPd2,3.51954486,-0.5668405124999998,0.0003409,0,0,75.65474364805434,75.65474364802903,26.703884782144748,9.758120735484233,18.23100275881449,157.1722217616333,111.62594379799084,45.54627796364244,2.847231474929164,1.412970332273232,mp-866279,866279
3208,K2CuF4,0.24859877,-2.538682369428571,1.0013083,1,1,43.738655571818036,43.09923112954455,18.930638572855234,18.619629200936842,18.775133886896036,157.1722217616333,111.62594379799084,45.54627796364244,2.847231474929164,1.412970332273232,mp-5699,5699
3209,TiGeO3,2.45442499,-2.6830558546666667,6.075e-05,0,0,50.52632339703746,6.275296655363416,31.843657957182604,2.714286759546737,17.27897235836467,157.1722217616333,111.62594379799084,45.54627796364244,2.847231474929164,1.412970332273232,mp-780260,780260
3210,Rb2PdBr6,-0.50427101,-1.339381938888889,4.6e-05,0,0,12.101924194968115,12.101924194968118,5.938856863576193,5.904386649101207,5.9216217563387,8.928323386649529,4.247859116649532,4.680464269999998,2.163438067059004,1.412970332273232,mp-28084,28084
3211,W(ClO)2,-1.77341034,-1.7377861259999996,1.8e-06,0,0,40.06039025018269,7.830859047774592,17.02769970312552,-0.620192872390603,8.203753415367459,18.601699316666664,14.64571945333333,3.955979863333333,1.9889645203807265,5.7610374457123585,mp-32539,32539
3212,YZnSn,5.51500811,-0.6063653780555557,0.0039051,0,0,66.85227600438891,61.68136807331859,45.03362807331428,41.108076369821205,43.07085222156775,157.1722217616333,111.62594379799084,45.54627796364244,2.847231474929164,1.412970332273232,mp-20987,20987
3213,W2C,7.87538014,0.0015219900000005282,3.12e-05,0,0,335.98977195724217,335.60725547727344,168.54841065010956,162.91328337059568,165.73084701035262,157.1722217616333,111.62594379799084,45.54627796364244,2.847231474929164,1.412970332273232,mp-567397,567397
3214,SrMgGe,3.22766041,-0.5352876780555554,0.000323325,0,0,40.763279020041715,39.00242361948818,32.61095650207856,29.686148373546818,31.14855243781269,157.1722217616333,111.62594379799084,45.54627796364244,2.847231474929164,1.412970332273232,mp-15643,15643
3215,MnSn2,8.81495624,0.00967629068965555,2.20253425,2,1,64.27931043917339,64.04241421439008,49.273159837667684,46.08202573476017,47.67759278621393,157.1722217616333,111.62594379799084,45.54627796364244,2.847231474929164,1.412970332273232,mp-20086,20086
3216,GaN,3.46241013,-0.6515246562500003,0.0089159,0,0,176.71007502602527,176.71007502602524,112.8868462712698,94.73138801804171,103.80911714465576,10.964575242658773,4.875300515988305,6.089274726670467,2.4676455836830513,0.12476806141345834,mp-830,830
3217,La3Te4,8.46622151,-1.8453124857142862,0.0270629,0,0,51.221793911614014,51.22179391159947,23.668065695653105,22.680159586272808,23.174112640962957,157.1722217616333,111.62594379799084,45.54627796364244,2.847231474929164,1.412970332273232,mp-879,879
3218,Mg17Al12,5.02840363,-0.02702928586206918,0.0006166,0,0,49.67016469925148,49.67016469925148,24.54608704393838,23.134372630681302,23.840229837309842,157.1722217616333,111.62594379799084,45.54627796364244,2.847231474929164,1.412970332273232,mp-2151,2151
3219,YAlO3,4.86442848,-3.6937905513333327,7.55e-06,0,0,191.87040787744226,191.09394679421038,106.51628029378023,98.44918331312768,102.48273180345396,157.1722217616333,111.62594379799084,45.54627796364244,2.847231474929164,1.412970332273232,mp-756214,756214
3220,TlBr,1.06513211,-1.1507479454166667,0.0008723,0,0,18.264636143521688,18.264636143521688,8.611458811760718,5.579037199867437,7.095248005814078,22.474534390005953,17.85735241667263,4.6171819733333175,2.14876289369798,1.412970332273232,mp-568560,568560
3221,NbS2,-0.43428865,-1.342400068749999,0.8579395,1,1,26.231619377124403,-0.655336052738442,15.616815546414307,-0.30273091613606185,7.6570423151391225,157.1722217616333,111.62594379799084,45.54627796364244,2.847231474929164,1.412970332273232,mp-2648,2648
3222,LiVF6,-4.46038525,-2.922385338541667,0.0,0,0,19.584987390909834,16.833181016381936,15.620514809878781,13.581160976284615,14.600837893081698,10.396388013333334,8.207219960000002,2.1891680533333333,1.4795837432647512,3.842910781548418,mp-753694,753694
3223,HfNbP,7.21353156,-1.0253305586111108,1.355e-05,0,0,178.801402477817,178.64823525609498,103.1194292374011,95.87583122061721,99.49763022900916,157.1722217616333,111.62594379799084,45.54627796364244,2.847231474929164,1.412970332273232,mp-22637,22637
3224,LiCuPd2,3.66113194,-0.2979288483333331,6.43e-05,0,0,116.31708291804779,116.31708291804783,49.34670183299986,36.03365198832493,42.690176910662395,157.1722217616333,111.62594379799084,45.54627796364244,2.847231474929164,1.412970332273232,mp-862657,862657
3225,NbSe2,2.8858598,-1.1560043157291666,0.001887425,0,0,37.489401868609384,7.020832485083781,22.849163320404646,3.815265519730713,13.332214420067679,157.1722217616333,111.62594379799084,45.54627796364244,2.847231474929164,1.412970332273232,mp-571133,571133
3226,CaPdPb,5.50450009,-0.6225449733333327,8.386666666666667e-05,0,0,58.21960939466075,56.00301792512842,26.37834409264916,24.48845612793888,25.43340011029402,157.1722217616333,111.62594379799084,45.54627796364244,2.847231474929164,1.412970332273232,mp-672254,672254
3227,B2O3,-0.41221484,-2.79805631,0.0,0,0,43.33581026714114,23.019562338920185,40.831566565597115,30.750140132808994,35.790853349203054,4.803695356649705,2.0803920033163714,2.7233033533333337,1.650243422448135,0.2728719853174447,mp-306,306
3228,Ba(SbPd)2,5.44531085,-0.8601272420000001,0.0006544,0,0,62.57502773293306,62.44654714957449,23.172088838018553,20.489579805046116,21.830834321532336,157.1722217616333,111.62594379799084,45.54627796364244,2.847231474929164,1.412970332273232,mp-6963,6963
3229,NdMg,3.240376,-0.10844391500000006,0.0894783,0,0,38.09733301996019,38.09733301996019,27.421215551073047,19.45209370746088,23.43665462926696,157.1722217616333,111.62594379799084,45.54627796364244,2.847231474929164,1.412970332273232,mp-1327,1327
3230,HfGaRu2,6.51436338,-0.6128478243749997,0.0032355,0,0,195.70291613237157,195.70291613237166,76.07433590063418,75.12973775814606,75.60203682939013,157.1722217616333,111.62594379799084,45.54627796364244,2.847231474929164,1.412970332273232,mp-865010,865010
3231,Mn3NiO8,1.11366415,-1.487912116149425,8.9988153,4,2,83.69114359512855,82.88502877084109,58.15252511521203,54.40935004009633,56.28093757765418,157.1722217616333,111.62594379799084,45.54627796364244,2.847231474929164,1.412970332273232,mp-757044,757044
3232,HfCrO3,4.31107315,-3.1034593744999994,0.0,4,1,138.05970415569223,125.472283122215,77.86874435135465,60.164338235268964,69.0165412933118,157.1722217616333,111.62594379799084,45.54627796364244,2.847231474929164,1.412970332273232,mp-756322,756322
3233,CsAgCl3,0.30449811,-1.4489478609195405,1.385e-05,0,0,14.152195987755952,9.802493492633296,7.276708491989061,5.063896431921669,6.170302461955365,157.1722217616333,111.62594379799084,45.54627796364244,2.847231474929164,1.412970332273232,mp-28610,28610
3234,NaTi2O3,7.03186863,-2.7785752280363987,0.0281779,0,0,143.0209452494845,140.12534743398624,78.91718954833023,72.98062543105999,75.9489074896951,157.1722217616333,111.62594379799084,45.54627796364244,2.847231474929164,1.412970332273232,mp-754375,754375
3235,CoCl2,1.74068571,-0.9817973683333339,3.0011738,1,1,16.763700796448163,5.034976268913026,8.048630260389094,0.2380591673082671,4.1433447138486805,157.1722217616333,111.62594379799084,45.54627796364244,2.847231474929164,1.412970332273232,mp-696114,696114
3236,BeF2,-3.99641581,-3.5522609677777783,0.0,0,0,19.96283971717535,19.888400468826358,26.509197899061146,24.124912986985045,25.317055443023094,3.4889826800003774,1.6891069066670437,1.7998757733333335,1.3415944891558453,0.09491495994528301,mp-15951,15951
3237,VSe2,3.64142869,-1.0063055648958337,0.7305515,1,1,26.938405393058684,4.555139874111445,21.19871156810638,2.389717202383189,11.794214385244784,157.1722217616333,111.62594379799084,45.54627796364244,2.847231474929164,1.412970332273232,mp-694,694
3238,LiVF4,0.59437353,-3.141511545555556,2.0002075,2,1,94.02497077268961,93.97526543002651,36.92453187862695,-78.1185148660184,-20.596991493695725,157.1722217616333,111.62594379799084,45.54627796364244,2.847231474929164,1.412970332273232,mp-758091,758091
3239,KNbO3,1.31004182,-2.8541873696000004,0.0001493,0,0,128.74344267706024,80.48755659995447,76.58585796207348,59.89170941753545,68.23878368980446,12.339191386666668,6.66817365,5.671017736666667,2.3813898749819753,3.26198338562599,mp-4342,4342
3240,ZnS,1.89256988,-1.0511780023958337,3.5466666666666664e-05,0,0,69.34296534753118,69.3331919379601,33.64129536201668,32.11309817792023,32.87719676996845,157.1722217616333,111.62594379799084,45.54627796364244,2.847231474929164,1.412970332273232,mp-555280,555280
3241,NdCl3,0.76417988,-2.747944405,0.0021369,0,0,36.25823642482664,32.42432383721684,18.885253751296585,16.58275550425836,17.734004627777473,157.1722217616333,111.62594379799084,45.54627796364244,2.847231474929164,1.412970332273232,mp-23183,23183
3242,Ca2Bi,3.7250422,-0.7516063966666667,6.405e-05,0,0,31.69918675991898,30.989172489935736,23.09007990400574,22.498531562050452,22.794305733028096,157.1722217616333,111.62594379799084,45.54627796364244,2.847231474929164,1.412970332273232,mp-569535,569535
3243,TiS,8.56947714,-1.669551418229167,1.17e-05,0,0,140.48737840280296,135.56358797234788,99.88449524159462,76.08272816459643,87.98361170309553,157.1722217616333,111.62594379799084,45.54627796364244,2.847231474929164,1.412970332273232,mp-554462,554462
3244,InGaO3,4.13019396,-2.1310215835,0.0006565,0,0,169.99029863925026,169.77478786010914,75.02935658854089,73.28095854703969,74.1551575677903,13.019858616661608,8.402782116661607,4.6170765,2.1487383507537627,1.412970332273232,mp-8098,8098
3245,ZrO2,1.83792261,-3.7631730533333325,1e-07,0,0,197.99168415920474,190.0123712552611,103.54531985076324,78.56642858255991,91.05587421666158,157.1722217616333,111.62594379799084,45.54627796364244,2.847231474929164,1.412970332273232,mp-775909,775909
3246,AlPd5I2,4.39125387,-0.524211835,0.0001099,0,0,24.331110071775324,14.846967179597351,16.971744177661403,8.578904716379053,12.775324447020228,157.1722217616333,111.62594379799084,45.54627796364244,2.847231474929164,1.412970332273232,mp-27393,27393
3247,TiInCo2,8.18120749,-0.23917963083333404,1.0118185,2,1,159.03642155194305,159.03642155194308,69.56992679230126,66.71475844129634,68.1423426167988,157.1722217616333,111.62594379799084,45.54627796364244,2.847231474929164,1.412970332273232,mp-865548,865548
3248,Ba(MgSb)2,3.47686598,-0.8455272300000001,0.0010674,0,0,36.08849368330189,36.06332101706034,24.893856112212948,23.482051070065953,24.18795359113945,17.36573706000025,6.706028336666916,10.659708723333333,3.264920936766055,1.412970332273232,mp-9567,9567