,formula_pretty,efermi,formation_energy_per_atom,total_magnetization_normalized_formula_units,num_magnetic_sites,num_unique_magnetic_sites,k_voigt,k_reuss,g_voigt,g_reuss,g_vrh,e_total,e_ionic,e_electronic,n,e_ij_max,material_id,b
2707,Mg2Si,4.72588364,0.4539050816666667,0.0018545,0,0,43.83784562986827,43.83784562986829,8.97614697678971,7.66575445821885,8.32095071750428,157.1722217616333,111.62594379799084,45.54627796364244,2.847231474929164,1.412970332273232,mp-570657,570657
2708,Zr5Te4,6.29423714,-1.044782446666666,0.0001461,0,0,67.0021577294324,66.96927749538771,37.061533706419304,34.25145035321674,35.656492029818025,157.1722217616333,111.62594379799084,45.54627796364244,2.847231474929164,1.412970332273232,mp-350,350
2709,HfZnNi2,5.94399523,-0.4307055275000007,0.0001309,0,0,150.56515167303593,150.5651516730359,51.97573508570527,45.866740336120984,48.921237710913125,157.1722217616333,111.62594379799084,45.54627796364244,2.847231474929164,1.412970332273232,mp-864807,864807
2710,CoOF,2.19166214,-1.5674022799999996,2.980017075,4,1,161.22472128880702,155.74374680766348,44.81969173883796,39.11417696604802,41.96693435244299,157.1722217616333,111.62594379799084,45.54627796364244,2.847231474929164,1.412970332273232,mp-758859,758859
2711,ScAlO3,4.99994749,-3.669621607,5.835e-05,0,0,208.81968969081265,203.39033019079687,118.54631299219251,114.12336722436523,116.33484010827887,157.1722217616333,111.62594379799084,45.54627796364244,2.847231474929164,1.412970332273232,mp-4471,4471
2712,Ba2CuF6,1.27692476,-3.377522933888889,0.9995919,1,1,58.08556142842545,57.56415877130434,24.61843139788883,23.325415077769353,23.971923237829092,157.1722217616333,111.62594379799084,45.54627796364244,2.847231474929164,1.412970332273232,mp-554352,554352
2713,Ni3N,8.15671476,-0.05959301874999934,0.00055755,0,0,197.04004721657475,197.0195485745236,74.25146797852987,72.42799376354266,73.33973087103627,157.1722217616333,111.62594379799084,45.54627796364244,2.847231474929164,1.412970332273232,mp-2033,2033
2714,ScFeO3,3.27827627,-2.779516663333333,4.999631966666667,12,5,171.2454468721403,171.18750203374938,74.21608989877593,70.27284078866968,72.24446534372281,157.1722217616333,111.62594379799084,45.54627796364244,2.847231474929164,1.412970332273232,mp-771123,771123
2715,Zr5N5O2,5.66367405,-2.2074129137500003,0.001275,0,0,223.65851468234135,219.66583154650118,124.74543502163196,108.96164040517236,116.85353771340216,157.1722217616333,111.62594379799084,45.54627796364244,2.847231474929164,1.412970332273232,mp-776331,776331
2716,SrIn4Pd,6.29809255,-0.4464213194444439,0.00058555,0,0,48.026002166935164,47.74420290510102,25.09986521365194,22.788718231189097,23.944291722420516,157.1722217616333,111.62594379799084,45.54627796364244,2.847231474929164,1.412970332273232,mp-19991,19991
2717,LiNiO2,2.86982159,-1.4595396008333337,0.9997962,1,1,107.82771762598301,33.44112155920424,51.35913410836153,2.247672367764027,26.803403238062778,11.662981656666666,4.298964053333333,7.364017603333333,2.713672346347903,1.2369103565785715,mp-25587,25587
2718,MgCu2O3,5.00807741,-1.5938102233333329,0.01134605,0,0,100.28284062177451,85.70790455968118,56.375249773647695,48.50513983869207,52.440194806169885,157.1722217616333,111.62594379799084,45.54627796364244,2.847231474929164,1.412970332273232,mp-27226,27226
2719,VRhO4,4.22652687,-1.805833821666667,0.0001611,0,0,216.16205374791366,211.91006688341193,96.56177298410809,68.00313044142264,82.28245171276536,157.1722217616333,111.62594379799084,45.54627796364244,2.847231474929164,1.412970332273232,mp-773064,773064
2720,MgCu,5.04939444,-0.08933417749999961,0.0006414,0,0,68.75291352424813,68.66526281337926,42.5206053995624,28.635060770230652,35.577833084896525,157.1722217616333,111.62594379799084,45.54627796364244,2.847231474929164,1.412970332273232,mp-972916,972916
2721,MgWO4,1.40627256,-2.5404723849999997,5.05e-06,0,0,124.46069591481357,119.04665396163306,47.96718524914271,45.39534283111826,46.681264040130486,157.1722217616333,111.62594379799084,45.54627796364244,2.847231474929164,1.412970332273232,mp-609151,609151
2722,Pd,4.47959619,0.0,0.4002472,1,1,160.471433539106,160.47143353910596,50.48509270266167,35.28114471875618,42.88311871070893,157.1722217616333,111.62594379799084,45.54627796364244,2.847231474929164,1.412970332273232,mp-2,2
2723,FeGe2,5.19067563,-0.004174647499999888,6.87e-05,0,0,125.58709588061664,123.7068720078205,69.30647468451929,66.3525973790955,67.8295360318074,157.1722217616333,111.62594379799084,45.54627796364244,2.847231474929164,1.412970332273232,mp-640708,640708
2724,ScAlPd2,6.22087306,-0.950400351249999,0.0009196,0,0,130.55859338916562,130.5585933891656,42.13172938350356,39.99619422342797,41.063961803465766,157.1722217616333,111.62594379799084,45.54627796364244,2.847231474929164,1.412970332273232,mp-16524,16524
2725,SnS,5.56809629,-0.6891782765625001,0.0014024,0,0,26.05671685637331,22.01581096548208,18.989759686219262,14.862401545322736,16.926080615771,48.05776801,28.127491339999995,19.930276669999998,4.464333843923413,1.412970332273232,mp-2231,2231
2726,MgPbF6,-2.02173603,-2.8594418218749995,3.45e-05,0,0,22.198238140129902,17.08820621204473,28.299415114532113,18.112401123454333,23.20590811899322,6.105156946661004,3.7029428599943377,2.402214086666666,1.549907767148312,1.412970332273232,mp-19734,19734
2727,AgAu3,4.65152792,-0.031698725416666296,0.0001347,0,0,122.47651372804408,122.2339462860913,23.573807376456156,22.015181456035435,22.794494416245797,157.1722217616333,111.62594379799084,45.54627796364244,2.847231474929164,1.412970332273232,mp-985287,985287
2728,VO2,0.81129818,-2.454352872500001,0.999841275,4,2,44.271306196919355,39.37617798902699,29.5506592814527,15.103336176752869,22.326997729102786,157.1722217616333,111.62594379799084,45.54627796364244,2.847231474929164,1.412970332273232,mp-777479,777479
2729,TiO2,3.98940272,-3.436221246944445,3.275e-05,0,0,158.2894580087324,144.94544673127328,90.7638265612694,78.55893591196049,84.66138123661494,157.1722217616333,111.62594379799084,45.54627796364244,2.847231474929164,1.412970332273232,mp-430,430
2730,CeCl3,4.26701309,-2.70678602875,1.00000025,2,1,33.28603098643772,28.17614999492669,17.423470250423733,15.185802858118853,16.304636554271294,157.1722217616333,111.62594379799084,45.54627796364244,2.847231474929164,1.412970332273232,mp-582011,582011
2731,YbI2,0.23600424,-1.9153547866666674,2.45e-05,0,0,6.871277959486828,1.8026296072794754,5.184704515384099,0.6262281547215538,2.9054663350528265,157.1722217616333,111.62594379799084,45.54627796364244,2.847231474929164,1.412970332273232,mp-570418,570418
2732,Sb2Au,6.51986421,-0.07228198833333366,0.00108075,0,0,71.18962688853222,71.18962688853222,24.239076550819643,22.829335180833365,23.534205865826504,157.1722217616333,111.62594379799084,45.54627796364244,2.847231474929164,1.412970332273232,mp-738,738
2733,Cu3SbSe3,5.16887221,-0.3311704127901786,0.0003774,0,0,52.04798096230719,49.44202171733716,17.823134766527037,17.285801834809224,17.55446830066813,157.1722217616333,111.62594379799084,45.54627796364244,2.847231474929164,1.412970332273232,mp-29476,29476
2734,TiBrN,2.23725451,-1.677940890277777,4.1e-05,0,0,52.416489945658064,13.015740589464743,33.27376656096845,1.9736739807935104,17.62372027088098,49.03701515999999,39.85309199333333,9.183923166666666,3.0304988313257386,1.412970332273232,mp-27849,27849
2735,Be12Pt,5.54884697,-0.09430585076923083,0.000437,0,0,132.97589606011556,132.626329246416,89.98804433901986,61.944345890091014,75.96619511455543,157.1722217616333,111.62594379799084,45.54627796364244,2.847231474929164,1.412970332273232,mp-571622,571622
2736,Fe(CO3)2,-0.61021408,-1.5849790922222222,0.001558625,4,1,25.84537012313044,12.700750896305111,23.12521051390448,0.5705380337474646,11.847874273825973,157.1722217616333,111.62594379799084,45.54627796364244,2.847231474929164,1.412970332273232,mp-752929,752929
2737,MgInNi2,7.24122626,-0.1963082825,0.0008802,0,0,104.3046036971821,104.3046036971821,52.36894349456209,28.655998248250707,40.5124708714064,157.1722217616333,111.62594379799084,45.54627796364244,2.847231474929164,1.412970332273232,mp-19929,19929
2738,MnB2,8.31025251,-0.2905682387547894,1.8187605,1,1,267.6715862112711,253.04990860240386,177.36035094246515,166.15027607245702,171.7553135074611,157.1722217616333,111.62594379799084,45.54627796364244,2.847231474929164,1.412970332273232,mp-585,585
2739,NaHgPd2,3.20990342,-0.17600300288793091,0.0005731,0,0,82.20080427605112,82.20080427605099,32.15551189651672,3.742464938116321,17.94898841731652,157.1722217616333,111.62594379799084,45.54627796364244,2.847231474929164,1.412970332273232,mp-865097,865097
2740,CsAuO,1.451468,-1.0655390076436777,0.000187175,0,0,21.882350387734686,21.846925318781405,9.284442899229228,7.827802148755758,8.556122523992492,8.316880692638595,4.522222165935422,3.7946585267031714,1.9479883281742658,1.412970332273232,mp-9986,9986
2741,TiGaNi,6.34586067,-0.5492847036111113,0.10577500000000001,0,0,148.109536529236,145.72548988645738,76.74648368779849,61.4996650142692,69.12307435103384,157.1722217616333,111.62594379799084,45.54627796364244,2.847231474929164,1.412970332273232,mp-30656,30656
2742,CaCl2,-0.58494804,-2.8034979433333334,2.05e-06,0,0,33.11502700217597,32.72218072606422,14.806180432835061,11.362144769870993,13.084162601353027,7.163089930000001,4.424570756666666,2.738519173333334,1.6548471752199156,1.412970332273232,mp-22904,22904
2743,FeOF,2.02329825,-2.02711946,4.9994947,8,8,125.59075298838141,110.99287766508357,59.759271050576146,50.618783479934415,55.18902726525528,16.00101895,11.451609216666666,4.549409733333333,2.132934535641761,0.8470146070532143,mp-754764,754764
2744,LiIn2Pd,7.67341299,-0.4504737558333334,0.0040146,0,0,64.8315212927651,64.8315212927651,24.2431353320928,-29.64918083190185,-2.7030227499045267,157.1722217616333,111.62594379799084,45.54627796364244,2.847231474929164,1.412970332273232,mp-20801,20801
2745,TiVO3,5.93972544,-3.000208739666667,0.0,2,1,170.71098382684235,164.64789509583858,76.77366922373669,72.15531795990285,74.46449359181977,157.1722217616333,111.62594379799084,45.54627796364244,2.847231474929164,1.412970332273232,mp-755657,755657
2746,Ba(AsPd)2,4.36308037,-0.7544699100000003,0.000203,0,0,65.53610177151933,61.92169146323224,34.84517150718673,30.84750434360063,32.84633792539368,157.1722217616333,111.62594379799084,45.54627796364244,2.847231474929164,1.412970332273232,mp-6962,6962
2747,Na3CoO3,1.58651722,-1.5121864803078822,1.999961675,4,1,53.605796752243386,50.892134287672086,21.348069396809375,12.934509892080053,17.141289644444715,157.1722217616333,111.62594379799084,45.54627796364244,2.847231474929164,1.412970332273232,mp-774092,774092
2748,TlFeS2,4.16938168,-0.6221936898958331,0.0001029,0,0,30.736609234139806,21.490111946061663,14.145729677327576,4.819026273736747,9.482377975532161,157.1722217616333,111.62594379799084,45.54627796364244,2.847231474929164,1.412970332273232,mp-3849,3849
2749,Zn(CrSe2)2,3.26045784,-0.8649466927678569,5.9997796,4,1,68.86839936641755,68.86839936641753,31.92355926774199,30.318580536257592,31.12106990199979,157.1722217616333,111.62594379799084,45.54627796364244,2.847231474929164,1.412970332273232,mp-4697,4697
2750,ZrPbO3,3.96780106,-2.8503136080000004,2.1875e-06,0,0,115.82975054693674,110.61928627892128,61.99978472209235,61.01380364204594,61.50679418206914,157.1722217616333,111.62594379799084,45.54627796364244,2.847231474929164,1.412970332273232,mp-542903,542903
2751,AlCuO2,6.09085843,-2.4171720525,3.64e-05,0,0,176.8587527744787,164.20785192585072,94.42268123090551,65.49416842590577,79.95842482840564,9.602708096663827,4.038474509997162,5.564233586666666,2.358862774021979,1.412970332273232,mp-3098,3098
2752,ScInAu2,6.49850481,-0.6277214987499997,0.0002729,0,0,99.89823245961782,99.89823245961783,32.63178703179408,13.933357356430436,23.28257219411226,157.1722217616333,111.62594379799084,45.54627796364244,2.847231474929164,1.412970332273232,mp-30395,30395
2753,KPt2S3,2.70490192,-0.9257593603958334,0.00015975,0,0,36.882920982780306,27.521290345773973,18.64151021268933,10.450007764559757,14.545758988624543,11.930129953333333,3.7704725399999997,8.159657413333333,2.8565114061269443,1.412970332273232,mp-30533,30533
2754,P2Pd3S8,1.13816163,-0.6358818216666665,0.0001876,0,0,6.7886290828829665,6.258644783968247,5.327080156245611,4.549729154160145,4.938404655202878,6.430731193333332,0.5748030366666667,5.855928156666665,2.41990250974428,1.412970332273232,mp-3006,3006
2755,Mn2CoGe,7.58112019,-0.15623913396551803,2.9997921,3,3,183.63114985643412,183.63114985640578,93.21283665447037,74.90695211095817,84.05989438271428,157.1722217616333,111.62594379799084,45.54627796364244,2.847231474929164,1.412970332273232,mp-22289,22289
2756,NbBiO4,2.32406844,-2.4523952966666656,1e-07,0,0,87.88965409880987,63.730269714584026,19.380099221596872,-9.850947972602242,4.764575624497315,23.720615343333332,18.28389367,5.4367216733333334,2.331677866544462,2.422482152508446,mp-863076,863076
2757,Y3Al2,4.10020951,-0.3545266135000006,0.017667775,0,0,58.52142501321222,58.39666547824841,33.408950471558704,32.604401956333895,33.0066762139463,157.1722217616333,111.62594379799084,45.54627796364244,2.847231474929164,1.412970332273232,mp-16723,16723
2758,TiPO4,5.3095294,-2.956822987777778,0.99970255,2,1,105.50224439533662,95.01012338968536,65.22619841006687,60.33204802201637,62.779123216041626,157.1722217616333,111.62594379799084,45.54627796364244,2.847231474929164,1.412970332273232,mp-5839,5839
2759,V3Ni,6.67725754,-0.15623093875000116,0.00106075,0,0,200.5296351705832,200.52963517058322,95.61083976924986,89.77932511490685,92.69508244207836,157.1722217616333,111.62594379799084,45.54627796364244,2.847231474929164,1.412970332273232,mp-7226,7226
2760,Li(Sn3Pd)2,7.61530794,-0.337015535370371,0.0033205,0,0,61.792232131224914,61.79024846553933,22.55365830827649,19.21719109763561,20.88542470295605,157.1722217616333,111.62594379799084,45.54627796364244,2.847231474929164,1.412970332273232,mp-569331,569331
2761,K2TiF6,-2.72837669,-3.5405283515925925,0.0,0,0,26.955816298160393,26.556027724621043,12.471602988663857,9.326433006774751,10.899017997719305,10.088003603177244,7.831663736510578,2.2563398666666665,1.5021118023192104,1.412970332273232,mp-3970,3970
2762,CoBiO4,2.27800838,-1.223517464166667,0.00014805,0,0,85.92244613632683,85.61605923016434,54.63012622926155,49.73967256528939,52.18489939727547,157.1722217616333,111.62594379799084,45.54627796364244,2.847231474929164,1.412970332273232,mp-755614,755614
2763,LiFeF4,-1.84094616,-2.815824112222223,4.9998259,1,1,63.97778054555678,48.14973148420835,36.378050336273525,27.800310818435996,32.08918057735476,8.089042166162223,5.6341285443504106,2.4549136218118117,1.566816396969285,1.412970332273232,mp-756849,756849
2764,TiO2,2.71271396,-3.4814307719444444,2.075e-06,0,0,191.30926115778695,190.93878113573217,78.93095480480068,77.12917012679127,78.03006246579596,157.1722217616333,111.62594379799084,45.54627796364244,2.847231474929164,1.412970332273232,mp-1840,1840
2765,FePt,6.72760577,-0.23211507500000028,3.2802089,2,2,201.28367935864844,201.1035326971542,98.3103481901208,86.47017296576205,92.39026057794143,157.1722217616333,111.62594379799084,45.54627796364244,2.847231474929164,1.412970332273232,mp-2260,2260
2766,HfCu2Te3,5.86648064,-0.6611262208333333,0.00010695,0,0,41.91585865528683,39.07533883909296,23.893689774129044,22.588405018435587,23.241047396282315,157.1722217616333,111.62594379799084,45.54627796364244,2.847231474929164,1.412970332273232,mp-3650,3650
2767,YScO3,2.14129691,-3.938950041333334,0.0002072,0,0,152.42865591514553,150.7109122622644,70.0354744694515,68.75630242696884,69.39588844821017,21.900895529626883,17.635333530294226,4.265561999332658,2.065323703280592,1.412970332273232,mp-768479,768479
2768,Zr2Sb,6.5724604,-0.7097692983333334,0.0037663,0,0,106.67263112198074,106.2337644692687,38.566897373872735,28.463988809353033,33.51544309161288,157.1722217616333,111.62594379799084,45.54627796364244,2.847231474929164,1.412970332273232,mp-31379,31379
2769,NbGaNi2,6.43227344,-0.33367014937500095,0.0002159,0,0,192.30955162288103,192.30955162288083,51.190730571293294,13.03093597975223,32.110833275522765,157.1722217616333,111.62594379799084,45.54627796364244,2.847231474929164,1.412970332273232,mp-3539,3539
2770,MnPt,5.99412069,-0.3463144039655175,4.3781351,2,2,168.20478418153658,167.3927022124801,77.54216152050711,65.5105323018494,71.52634691117825,157.1722217616333,111.62594379799084,45.54627796364244,2.847231474929164,1.412970332273232,mp-1670,1670
2771,Nb2CS2,4.53831738,-1.0549003032499997,0.0087424,0,0,62.447503186451385,6.169413051840109,46.90506841851454,1.2757856731036625,24.0904270458091,157.1722217616333,111.62594379799084,45.54627796364244,2.847231474929164,1.412970332273232,mp-4384,4384
2772,ZrO2,2.98660077,-3.777373264999999,0.0,0,0,175.4004462375125,161.8805914040142,73.998608349271,22.068590354154992,48.03359935171299,157.1722217616333,111.62594379799084,45.54627796364244,2.847231474929164,1.412970332273232,mp-2574,2574
2773,SnBr2,0.94766359,-1.1333000841666665,0.000413275,0,0,6.497046857519654,5.230194827385221,2.938171053280166,66.78223576435798,34.860203408819075,157.1722217616333,111.62594379799084,45.54627796364244,2.847231474929164,1.412970332273232,mp-29862,29862
2774,Li3Fe3O8,1.10424111,-1.5995430007142855,11.0030816,3,1,94.07140456642969,87.1190107931987,30.519259221827788,-47.601990765647926,-8.541365771910069,157.1722217616333,111.62594379799084,45.54627796364244,2.847231474929164,1.412970332273232,mp-758388,758388
2775,LiCuS2,3.06611435,-0.7724356648958333,0.0001372,0,0,49.389477983661465,35.447406298989186,20.73595383433554,9.83411628290698,15.28503505862126,157.1722217616333,111.62594379799084,45.54627796364244,2.847231474929164,1.412970332273232,mp-753722,753722
2776,KNO3,-1.25544897,-1.4266893160999998,0.00062905,0,0,17.771710448628774,16.26628739242865,7.791831301633138,7.437102224214356,7.6144667629237475,4.691744133333333,2.6225817866666667,2.069162346666667,1.438458322881364,1.412970332273232,mp-5158,5158
2777,CaS,2.66171321,-2.3999277215625,0.0016203,0,0,57.065004269348215,57.06500426934821,39.94645020161912,38.49854441833482,39.22249730997697,12.091625876473438,7.103290626469776,4.9883352500036615,2.233458137060926,1.412970332273232,mp-1672,1672
2778,Si,3.88103622,0.06390254369565224,0.0,0,0,76.02794086434395,76.02794086434396,45.543546202298984,45.415164427699175,45.47935531499908,157.1722217616333,111.62594379799084,45.54627796364244,2.847231474929164,1.412970332273232,mp-971662,971662
2779,Tl2WCl6,2.74561447,-1.3390551274074072,1.9978847,1,1,14.647231180335726,14.647231180335728,5.027225368649286,4.316792890416636,4.672009129532961,157.1722217616333,111.62594379799084,45.54627796364244,2.847231474929164,1.412970332273232,mp-29556,29556
2780,MoC,8.99072525,-0.08386218000000056,0.0001977,0,0,352.0141200354499,347.68216099449495,243.05959260964582,236.5402601980051,239.79992640382545,157.1722217616333,111.62594379799084,45.54627796364244,2.847231474929164,1.412970332273232,mp-2305,2305
2781,V2B3,8.4520879,-0.7982462725000005,0.00039885,0,0,281.87589020146265,278.84051730879014,239.08556299736787,235.41200310448644,237.24878305092716,157.1722217616333,111.62594379799084,45.54627796364244,2.847231474929164,1.412970332273232,mp-9208,9208
2782,Rb2PbO3,1.09640969,-1.5536238091666672,2.59e-05,0,0,37.19731181457112,36.132499606422265,17.98755045512818,13.347873289521695,15.667711872324936,61.39049535999998,57.10207323666665,4.288422123333333,2.070850579673322,3.386161860248265,mp-21489,21489
2783,NaCrO2,3.12839426,-2.2606103510129314,0.0,4,1,121.82358133936833,117.33951735924383,84.15123193042967,76.71868101490716,80.43495647266842,9.284882736753941,4.997261840087277,4.287620896666664,2.0706571171168497,1.412970332273232,mp-578604,578604