,formula_pretty,efermi,formation_energy_per_atom,total_magnetization_normalized_formula_units,num_magnetic_sites,num_unique_magnetic_sites,k_voigt,k_reuss,g_voigt,g_reuss,g_vrh,e_total,e_ionic,e_electronic,n,e_ij_max,material_id,b
2245,HfTiO4,2.59952187,-3.7256420126388883,9.45e-06,0,0,186.5940420660471,176.26303845496895,75.84083168914908,68.70806199012247,72.27444683963577,42.25014430333334,36.34440736333334,5.9057369400000015,2.4301722037748688,1.6039906888540267,mp-753197,753197
2246,NiP3,8.2089381,-0.3026625806249994,0.002495425,0,0,114.6560090478493,114.65600904784928,75.51176516530003,75.0933751810136,75.30257017315682,157.1722217616333,111.62594379799084,45.54627796364244,2.847231474929164,1.412970332273232,mp-2301,2301
2247,AgSbO3,3.27635654,-1.4297878453333333,0.0001783,0,0,93.39130359636188,79.08148831569245,23.73766162563368,-18.328186958797772,2.7047373334179543,24.8699190392,7.626446065814612,17.24347297338539,4.152526095449057,1.412970332273232,mp-545999,545999
2248,KGaSb4,3.87324359,-0.35248940841666726,0.00376985,0,0,22.232059449415644,20.46889381652439,14.420090743912555,13.183306916723948,13.801698830318252,157.1722217616333,111.62594379799084,45.54627796364244,2.847231474929164,1.412970332273232,mp-29374,29374
2249,CsVO3,-0.70770517,-2.4180726150862073,0.000103275,0,0,21.608355876781573,17.12070603599609,11.065475068635475,8.743260215412665,9.90436764202407,157.1722217616333,111.62594379799084,45.54627796364244,2.847231474929164,1.412970332273232,mp-504651,504651
2250,Fe2SiO4,4.30633867,-2.262718861428571,0.0,4,1,181.12920347269502,181.129203472695,72.42792130527104,71.9652575343054,72.19658941978821,157.1722217616333,111.62594379799084,45.54627796364244,2.847231474929164,1.412970332273232,mp-18816,18816
2251,RbCl,-1.81796229,-2.24487043875,0.0003388,0,0,14.623403566349403,14.623403566349399,8.425049870061967,6.917202567892538,7.671126218977252,5.651929926679217,3.370879896679218,2.2810500299999994,1.5103145467087309,1.412970332273232,mp-23295,23295
2252,Si3NiP4,7.15695372,-0.24289390916666775,0.0002415,0,0,104.81995015041396,104.80966600260263,63.45647365420585,59.287995278972325,61.37223446658909,21.556474266737045,2.901374386737045,18.655099879999998,4.319154996061151,0.7303455051703549,mp-8311,8311
2253,NbSe2,2.93153839,-1.1548680982291668,0.75117985,2,1,39.297441964584,6.0177138603077855,23.775718677110532,4.430243038711822,14.102980857911177,157.1722217616333,111.62594379799084,45.54627796364244,2.847231474929164,1.412970332273232,mp-2207,2207
2254,LiFe5O8,3.51347029,-1.6385280530952377,24.999894,13,4,159.2892069337897,158.03350238982773,68.01082512088783,60.92608015486244,64.46845263787513,15.559914493332359,10.153574623332362,5.406339869999999,2.3251537304014973,1.412970332273232,mp-33551,33551
2255,Ca2AuN,3.2488247,-0.8967025275,8.3e-06,0,0,58.84984382427168,58.72808795582035,31.985876669718266,30.8475588254477,31.416717747582982,25.72300307333333,11.216216623333333,14.506786449999995,3.808777553231482,1.412970332273232,mp-29175,29175
2256,FeSi,9.48775017,-0.4759877512499999,4.875e-06,0,0,211.46491309801715,211.46491309801712,139.39829533972684,137.8775217041347,138.63790852193077,113.79217797,21.634471380000004,92.15770658999999,9.59988055081937,1.07752,mp-871,871
2257,TiGa,5.51371309,-0.4716357154166664,0.0001765,0,0,114.77779687803448,114.65635520357166,75.81441833003295,67.43933170043832,71.62687501523564,157.1722217616333,111.62594379799084,45.54627796364244,2.847231474929164,1.412970332273232,mp-2767,2767
2258,NiSe2,6.29710288,-0.5409002965624996,0.000385875,0,0,77.15614822263693,77.1561482226108,38.13678414684746,38.107290159291466,38.12203715306946,157.1722217616333,111.62594379799084,45.54627796364244,2.847231474929164,1.412970332273232,mp-20901,20901
2259,K2PtCl4,0.07500094,-1.6869670865714284,0.0017172,0,0,11.811163264303886,11.769264866730909,7.04005193693584,6.345406066164047,6.692729001549944,13.61177475333333,10.275477023333332,3.3362977299999996,1.8265535113979003,1.412970332273232,mp-22934,22934
2260,Mg3Ge,3.63765056,-0.059814560000000405,0.00136265,0,0,39.564671980972335,5.985791054535799,2.8993801131734025,2.221140596310207,2.560260354741805,157.1722217616333,111.62594379799084,45.54627796364244,2.847231474929164,1.412970332273232,mp-642855,642855
2261,Sc3AlC,4.49284498,-0.5946012209999992,0.0001348,0,0,101.73424117407409,101.73424117407409,82.93363049566125,82.68642215410617,82.81002632488371,157.1722217616333,111.62594379799084,45.54627796364244,2.847231474929164,1.412970332273232,mp-4079,4079
2262,Ge3N2,2.62582745,0.00868623900000003,3.525e-06,0,0,99.24964060807454,99.24964060807454,53.20137414975109,52.96228204579724,53.081828097774164,157.1722217616333,111.62594379799084,45.54627796364244,2.847231474929164,1.412970332273232,mp-971694,971694
2263,CoAgO2,2.79283801,-1.014486349166666,4.6e-06,0,0,134.45653566786325,121.76256817433733,36.40437939089218,17.30013363642893,26.852256513660556,15.808172749738425,5.1740366030717615,10.634136146666664,3.2610023223951656,1.412970332273232,mp-19178,19178
2264,MnCo2Sb,8.58671314,-0.14476611948275853,5.9920574,3,2,150.01689344811362,150.01689344811365,77.55125801605121,69.36599097569338,73.4586244958723,157.1722217616333,111.62594379799084,45.54627796364244,2.847231474929164,1.412970332273232,mp-5396,5396
2265,HgO2,1.34788943,-0.06608010916666629,1.175e-06,0,0,55.91231048700641,24.334708606452796,18.86776964368187,11.901356229793429,15.38456293673765,11.299302356666667,4.930605923333333,6.368696433333334,2.5236276336522656,1.412970332273232,mp-557266,557266
2266,Mn2BeO4,3.59700082,-2.2859513751231524,8.000145325,8,2,152.04905177982295,144.31772598835414,39.063541530381265,20.074649991820596,29.569095761100932,157.1722217616333,111.62594379799084,45.54627796364244,2.847231474929164,1.412970332273232,mp-770881,770881
2267,Lu(FeO2)2,4.55630067,-2.4041593057142854,9.0006579,4,3,159.91583746822383,156.80536306533372,58.31272804940344,56.78333415796372,57.548031103683584,157.1722217616333,111.62594379799084,45.54627796364244,2.847231474929164,1.412970332273232,mp-19366,19366
2268,Rb2O,0.53506081,-1.1331683733333329,0.0008154,0,0,8.944444629961891,1.8054462613685913,5.248667562627845,1.9347476373489254,3.591707599988385,8.018310990005403,3.7782825433387366,4.240028446666667,2.0591329356471055,1.412970332273232,mp-753746,753746
2269,AsPd2,5.60886275,-0.3691487741666665,4.55e-06,0,0,131.1132245002847,113.44126185750852,32.48016324710531,26.322698240299253,29.40143074370228,157.1722217616333,111.62594379799084,45.54627796364244,2.847231474929164,1.412970332273232,mp-8073,8073
2270,AlBO3,4.87077884,-3.1183578568333337,0.00010885,0,0,210.34952736300136,198.68499027720296,141.26940254237948,130.500969464841,135.88518600361024,157.1722217616333,111.62594379799084,45.54627796364244,2.847231474929164,1.412970332273232,mp-8110,8110
2271,Sc3FeC4,6.08251693,-0.43512787312500123,0.6721617,1,1,178.95885298285793,177.12374208488558,121.65551161722098,119.24319157730179,120.44935159726138,157.1722217616333,111.62594379799084,45.54627796364244,2.847231474929164,1.412970332273232,mp-3155,3155
2272,ScBRh3,6.13154555,-0.7533562668333331,0.0632375,0,0,194.00641191534183,194.0064119153418,100.4523669375477,90.79867169599295,95.62551931677032,157.1722217616333,111.62594379799084,45.54627796364244,2.847231474929164,1.412970332273232,mp-569875,569875
2273,Li3In,2.56974908,-0.2404349050000003,0.0045784,0,0,25.147236865609404,25.147236865609415,16.85583781752382,7.7141567223542635,12.284997269939042,157.1722217616333,111.62594379799084,45.54627796364244,2.847231474929164,1.412970332273232,mp-867226,867226
2274,AlVRu2,8.33200241,-0.6416661374999997,4.62e-05,0,0,235.09532241620062,235.09532241620062,123.55391433323199,122.66434603232923,123.1091301827806,157.1722217616333,111.62594379799084,45.54627796364244,2.847231474929164,1.412970332273232,mp-866001,866001
2275,HfTe2,5.05434092,-1.1040676066666677,1.2e-06,0,0,18.28181108519387,10.876935249312055,15.499396391263023,7.8007170358135385,11.65005671353828,157.1722217616333,111.62594379799084,45.54627796364244,2.847231474929164,1.412970332273232,mp-32887,32887
2276,Li2VO3,2.62968463,-2.477306122361112,3.25e-07,4,2,110.1859247325374,104.80929735419703,76.63316086728858,64.79715576904013,70.71515831816436,22.17739722666667,17.253151280000008,4.924245946666667,2.2190642051699783,1.412970332273232,mp-774192,774192
2277,MoO2,3.10490576,-1.792571115833334,2.0000111,4,1,89.80120166881028,88.94123248725988,54.83444773693221,46.17419684858038,50.5043222927563,157.1722217616333,111.62594379799084,45.54627796364244,2.847231474929164,1.412970332273232,mp-714969,714969
2278,Cu2GeSe3,3.83342038,-0.48109025867187505,0.000132,0,0,59.92367869022972,59.91742253788179,27.799126791496253,23.81777315328886,25.80844997239256,157.1722217616333,111.62594379799084,45.54627796364244,2.847231474929164,1.412970332273232,mp-4728,4728
2279,CaCO3,2.6148124,-2.378532235,9.805e-05,0,0,74.57112325712355,71.37974341952753,18.167853833458103,0.5642707883508336,9.366062310904468,12.688309365439821,9.478890778563818,3.2094185868760015,1.7914850227886365,1.8751176613272091,mp-548403,548403
2280,KBr,-1.81447618,-2.02868443025,2.8e-06,0,0,21.636928269373016,21.63692826937302,7.809888762251758,6.843498514116348,7.326693638184053,4.828897389994891,2.074777746661586,2.7541196433333055,1.6595540495365932,1.412970332273232,mp-23251,23251
2281,DyAlO3,4.45822669,-3.748273743,0.0,0,0,193.21211823705755,191.81238715546624,115.22819643974664,110.33877941632298,112.78348792803482,157.1722217616333,111.62594379799084,45.54627796364244,2.847231474929164,1.412970332273232,mp-756630,756630
2282,Na2SiO3,1.19803672,-2.6992391030172413,0.0,0,0,61.99808308409946,61.96528137599353,37.146915537836485,33.4139462963439,35.28043091709019,11.273556223333335,8.734853476666666,2.5387027466666665,1.5933307085055088,0.5807395032198172,mp-4533,4533
2283,TiNCl,2.47889666,-1.859730766111112,1.075e-05,0,0,50.64259774784057,7.392689282880409,36.21226283162468,2.961462837617935,19.586862834621307,59.432988446666656,50.86184670999999,8.571141736666666,2.9276512320743855,1.412970332273232,mp-27850,27850
2284,HfBe5,4.21067388,-0.22937149416666655,0.0001259,0,0,131.26215030930138,131.20398148848764,123.77989292122093,115.59896567196509,119.689429296593,157.1722217616333,111.62594379799084,45.54627796364244,2.847231474929164,1.412970332273232,mp-2025,2025
2285,SrAl2,4.62923428,-0.2601817938888888,0.0003464,0,0,44.83067144993986,44.70234976915936,34.47348342661912,32.760752713583265,33.61711807010119,157.1722217616333,111.62594379799084,45.54627796364244,2.847231474929164,1.412970332273232,mp-22318,22318
2286,Si(NiO2)2,5.35322338,-2.0873043242857148,3.99503815,4,1,198.5465547952529,198.54655479525292,100.80279717866092,100.78860643604614,100.79570180735354,157.1722217616333,111.62594379799084,45.54627796364244,2.847231474929164,1.412970332273232,mp-18766,18766
2287,SrSiPd,4.38274317,-0.7319533405555555,2.6125e-05,0,0,68.39111151818956,68.39111151818953,22.78798451813432,19.42113670715352,21.10456061264392,157.1722217616333,111.62594379799084,45.54627796364244,2.847231474929164,1.412970332273232,mp-8843,8843
2288,Ti,6.01300425,0.004434846666666381,0.0001119,0,0,112.99827066421085,112.95558733526148,46.9794786151139,46.45145401873173,46.715466316922814,157.1722217616333,111.62594379799084,45.54627796364244,2.847231474929164,1.412970332273232,mp-46,46
2289,Ba(FeAs)2,4.88622424,-0.5638677110000003,0.0002017,4,1,79.29339651801415,75.06591834289235,43.83078681143177,39.59991688970047,41.71535185056612,157.1722217616333,111.62594379799084,45.54627796364244,2.847231474929164,1.412970332273232,mp-568961,568961
2290,AlCl3,0.05888689,-1.9658118112499996,0.0,0,0,17.301277276898688,1.1664087028953836,11.079438600735394,0.4201458691632785,5.749792234949336,5.348142059989676,2.500801656656342,2.8473404033333334,1.6874064132073616,1.412970332273232,mp-25469,25469
2291,AgNO2,0.03861221,-0.5008705666666664,0.0,0,0,28.518612450524472,10.884527315947931,11.683010146260244,4.863358492449042,8.273184319354643,157.1722217616333,111.62594379799084,45.54627796364244,2.847231474929164,1.412970332273232,mp-996960,996960
2292,HgPtO2,2.97801688,-0.68151349625,0.000167,0,0,59.72195719122663,23.65915517873,24.40146704274766,6.639308846801032,15.520387944774347,157.1722217616333,111.62594379799084,45.54627796364244,2.847231474929164,1.412970332273232,mp-754538,754538
2293,NaAlSi,4.47273968,-0.07177938718390801,0.00059845,0,0,42.090423321955036,40.54051865553965,23.05771340118578,22.521882479400517,22.78979794029315,157.1722217616333,111.62594379799084,45.54627796364244,2.847231474929164,1.412970332273232,mp-27335,27335
2294,MgSn4Ru,8.49165165,-0.20676422083333357,0.00049665,0,0,74.06394682461874,74.05980794691659,49.70871958292717,48.12972898515765,48.919224284042414,157.1722217616333,111.62594379799084,45.54627796364244,2.847231474929164,1.412970332273232,mp-20202,20202
2295,VSe,3.08014593,-0.7892368336718754,0.03798435,0,0,33.824455436521596,14.140958752767123,-8.749777407487892,-1.3625780968031203,-5.056177752145507,157.1722217616333,111.62594379799084,45.54627796364244,2.847231474929164,1.412970332273232,mp-604914,604914
2296,NbC,7.21371337,-0.4591241950000011,3.33e-05,0,0,300.1480448905786,300.14804489057866,200.94851118996624,192.65773406651383,196.80312262824003,157.1722217616333,111.62594379799084,45.54627796364244,2.847231474929164,1.412970332273232,mp-910,910
2297,ZnO,0.8923141,-1.7908960925000001,7.115e-05,0,0,129.64064952315726,129.64064676886798,41.69624986656616,40.642505751538934,41.16937780905255,10.835297913347347,5.444936760014014,5.390361153333333,2.321715131822449,1.2856161854535995,mp-2133,2133
2298,Na2O,0.65267651,-1.4385102293678156,0.0004559,0,0,45.636961572344056,45.63696157234406,31.2849714986569,29.08634684567263,30.185659172164765,7.569727949437275,4.298061296568865,3.2716666528684093,1.8087749038695802,1.412970332273232,mp-2352,2352
2299,Hg,1.0194962,0.007564065000000009,1.08e-05,0,0,8.513056963833565,8.487414062945641,3.2302965830990837,2.5958802553912887,2.9130884192451862,157.1722217616333,111.62594379799084,45.54627796364244,2.847231474929164,1.412970332273232,mp-569289,569289
2300,SiB4,7.89515832,0.2494386420000012,2.8999999999999998e-06,0,0,140.48487848819502,136.33536918096752,114.36451051209039,85.657901479082,100.0112059955862,157.1722217616333,111.62594379799084,45.54627796364244,2.847231474929164,1.412970332273232,mp-978496,978496
2301,HoFeO3,3.50671299,-2.8581157905,4.999463025,4,1,178.35943093774307,175.66653255381541,85.04527297630865,83.26116331487185,84.15321814559024,157.1722217616333,111.62594379799084,45.54627796364244,2.847231474929164,1.412970332273232,mp-19785,19785
2302,Pt(SCl3)2,0.18056493,-0.6958617206944449,0.0050378,0,0,3.6174188806854723,2.251765849747442,2.2320007318517745,1.4785932010141962,1.8552969664329853,157.1722217616333,111.62594379799084,45.54627796364244,2.847231474929164,1.412970332273232,mp-28722,28722
2303,Zn3B,3.70643427,0.6203578677083335,0.0045132,0,0,91.16153187394174,91.16153187394171,7.246922935372212,-39.788284894694776,-16.270680979661282,157.1722217616333,111.62594379799084,45.54627796364244,2.847231474929164,1.412970332273232,mp-971853,971853
2304,Li3Bi,2.94117106,-0.5295057349999999,0.0018188,0,0,28.243592228782614,28.243592228782624,27.2078451735649,15.125992797365221,21.16691898546506,27.40847844012576,13.631700056789668,13.776778383336085,3.711708283706585,1.412970332273232,mp-23222,23222
2305,ZrCuSi,6.88562639,-0.6445515483333336,0.012589925,0,0,146.8141111661556,146.2877722655333,85.73464403071469,82.45030110454331,84.092472567629,157.1722217616333,111.62594379799084,45.54627796364244,2.847231474929164,1.412970332273232,mp-22522,22522
2306,BN,9.9891579,1.1006231079166664,4.52e-05,0,0,707.5924188740147,721.4145881791344,-401.86345150750986,-116.04976778549903,-258.95660964650443,157.1722217616333,111.62594379799084,45.54627796364244,2.847231474929164,1.412970332273232,mp-601223,601223
2307,Bi,6.05769972,0.1393553999999999,9.64e-05,0,0,53.4096018016205,53.409601801620525,15.92533177242175,10.134368470440165,13.029850121430957,157.1722217616333,111.62594379799084,45.54627796364244,2.847231474929164,1.412970332273232,mp-568610,568610
2308,BaZrS3,2.88159427,-2.1082672448750004,6.3e-06,0,0,41.94098425181376,309.6214944027624,31.73289734728929,42.06097129188594,36.896934319587615,110.36956133666666,100.78218217999999,9.587379156666666,3.096349327299274,1.412970332273232,mp-540771,540771
2309,Li(CuO)3,3.95334436,-1.1124665361904766,0.16734875,2,3,107.05009680141409,61.861552483509925,46.33609499454631,33.41154927769865,39.87382213612248,157.1722217616333,111.62594379799084,45.54627796364244,2.847231474929164,1.412970332273232,mp-753848,753848
2310,CuSnRh2,8.23703126,-0.3484171737499997,9.87e-05,0,0,177.2223354968714,177.22233549687132,72.54974758917812,58.30083436414865,65.42529097666339,157.1722217616333,111.62594379799084,45.54627796364244,2.847231474929164,1.412970332273232,mp-30595,30595
2311,AlPO4,-0.51491557,-3.118335531388888,0.0,0,0,9.457521798281583,9.318493197182045,33.93031862956514,27.34763160001634,30.63897511479074,16.99185887333333,14.698941,2.2929178733333333,1.5142383806169137,2.1131299999999995,mp-4051,4051
2312,C,3.28279189,0.004171435000001722,3.67e-05,0,0,231.7271570799977,5.92094011242052,182.16910629961495,3.0490841984259065,92.60909524902043,157.1722217616333,111.62594379799084,45.54627796364244,2.847231474929164,1.412970332273232,mp-937760,937760
2313,La2Si4CN6,7.70275778,-1.3323986119230768,2.7325e-05,0,0,80.70906308368967,31.205211867564497,82.88487341327145,56.39078479924276,69.6378291062571,157.1722217616333,111.62594379799084,45.54627796364244,2.847231474929164,1.412970332273232,mp-866650,866650
2314,LiSiPd2,6.26790772,-0.6969599858333329,0.0002416,0,0,138.16597227613414,138.16597227613408,47.735887248701026,25.411139110434974,36.573513179567996,157.1722217616333,111.62594379799084,45.54627796364244,2.847231474929164,1.412970332273232,mp-864997,864997
2315,TiAlRu2,7.9479865,-0.7654825508333332,0.0017739,0,0,208.79409852831026,208.79409852831026,86.56384059340537,86.17021212776763,86.3670263605865,157.1722217616333,111.62594379799084,45.54627796364244,2.847231474929164,1.412970332273232,mp-866155,866155
2316,NbNO,4.02409913,-1.9765594149999994,2.75e-07,0,0,238.17073118379605,234.8841702070683,114.21383131079946,103.1228000257005,108.66831566824999,157.1722217616333,111.62594379799084,45.54627796364244,2.847231474929164,1.412970332273232,mp-7596,7596
2317,KMnF3,0.63139417,-3.021168853686207,5.0,2,1,59.59820498219155,58.65765520759664,27.16803138929108,25.990258209368395,26.57914479932974,9.962185469837022,7.729901663170357,2.2322838066666666,1.4940829316562942,1.412970332273232,mp-555359,555359
2318,BePO4,-1.36180881,-2.538198353055556,0.99909,3,1,24.130622719069454,14.936528076410536,23.2373990066673,16.627057367598603,19.93222818713295,157.1722217616333,111.62594379799084,45.54627796364244,2.847231474929164,1.412970332273232,mp-760410,760410
2319,Cu2SnTe3,5.17002197,-0.3479322591666663,0.0008627,0,0,45.66713563667604,45.6619827412051,20.802582267388875,18.238586197437645,19.52058423241326,157.1722217616333,111.62594379799084,45.54627796364244,2.847231474929164,1.412970332273232,mp-675880,675880
2320,YAs,4.24484559,-1.5483916908333333,0.0038508,0,0,75.48744325477364,75.48744325477364,53.6388515153884,48.3215510185442,50.980201266966304,157.1722217616333,111.62594379799084,45.54627796364244,2.847231474929164,1.412970332273232,mp-933,933
2321,MgGeP2,3.10581241,-0.30620218291666657,8.465e-05,0,0,64.86015713367185,64.07345267361542,33.97359028858769,28.89765693773378,31.435623613160736,12.042480104684353,2.427630285465027,9.614849819219328,3.100782130240583,0.18508655362909046,mp-34903,34903