,formula_pretty,efermi,formation_energy_per_atom,total_magnetization_normalized_formula_units,num_magnetic_sites,num_unique_magnetic_sites,k_voigt,k_reuss,g_voigt,g_reuss,g_vrh,e_total,e_ionic,e_electronic,n,e_ij_max,material_id,b
3326,YC2,4.53737897,-0.18900418222222135,0.0001427,0,0,117.88067462976369,107.12342808870976,64.04165099289253,16.540021948954628,40.29083647092358,157.1722217616333,111.62594379799084,45.54627796364244,2.847231474929164,1.412970332273232,mp-313,313
3327,HfGeSe,6.8341168,-1.090811237447917,5.4e-06,0,0,111.91665973222536,111.76975194276244,75.16008320473857,72.55036500485939,73.85522410479898,157.1722217616333,111.62594379799084,45.54627796364244,2.847231474929164,1.412970332273232,mp-7917,7917
3328,LiCoS2,4.93231134,-1.0087503436458345,3.2e-06,0,0,79.18505366076738,69.68003095831364,49.63793047740866,44.434258935391405,47.036094706400036,21.26679951168236,4.039199916844471,17.227599594837894,4.150614363541607,1.412970332273232,mp-753946,753946
3329,Fe5C2,6.89623389,0.05864979571428514,8.4522588,10,3,233.70845255696608,232.9627342793704,101.84328052128839,78.34730444848388,90.09529248488613,157.1722217616333,111.62594379799084,45.54627796364244,2.847231474929164,1.412970332273232,mp-2794,2794
3330,WN,9.35277295,0.15440444249999885,0.001873,0,0,354.33945787524306,354.339457875243,32.186259151669475,-187.5901456528936,-77.70194325061206,157.1722217616333,111.62594379799084,45.54627796364244,2.847231474929164,1.412970332273232,mp-569228,569228
3331,ZrS,7.2950712,-1.5942602765625002,0.000351,0,0,131.04645164146552,131.04645164146552,67.91153935945788,34.22027549075858,51.06590742510823,157.1722217616333,111.62594379799084,45.54627796364244,2.847231474929164,1.412970332273232,mp-1925,1925
3332,LiMn2O4,2.42470112,-2.018593539170772,7.0000978,4,2,98.73696837333088,94.9040323913107,58.26885725034811,53.402401722595435,55.835629486471774,157.1722217616333,111.62594379799084,45.54627796364244,2.847231474929164,1.412970332273232,mp-757975,757975
3333,Li2MgMn3O8,1.43840018,-2.21841566110427,9.000214725,12,1,115.92815820568256,115.9281582056826,70.20679813973523,66.41975310793688,68.31327562383606,157.1722217616333,111.62594379799084,45.54627796364244,2.847231474929164,1.412970332273232,mp-581301,581301
3334,CaSi,4.91583017,-0.5029676075000005,0.00015285,0,0,53.51604676722593,53.021336617768746,38.312401006151426,37.27421534267751,37.79330817441446,157.1722217616333,111.62594379799084,45.54627796364244,2.847231474929164,1.412970332273232,mp-1563,1563
3335,Al2B2Ru3,9.40978701,-0.47121620333333325,1.14e-05,0,0,230.25717258825475,229.3922042852926,105.99003441776215,99.59527674237724,102.79265558006969,157.1722217616333,111.62594379799084,45.54627796364244,2.847231474929164,1.412970332273232,mp-29674,29674
3336,InCuS2,5.01065751,-0.7301020478125002,0.0001789,0,0,63.5764493983834,63.575918685542995,27.845862060473955,23.149261904193757,25.497561982333856,4046.8982744170676,195.08260255373514,3851.815671863332,62.06299760616894,4.016270261895697,mp-22736,22736
3337,MgSiRh2,8.38516166,-0.7560196600000006,0.001011,0,0,176.74558384719128,176.74558384719126,78.19750954861823,77.3034356863708,77.75047261749452,157.1722217616333,111.62594379799084,45.54627796364244,2.847231474929164,1.412970332273232,mp-866087,866087
3338,Y2Pb2O7,3.80153266,-2.535942678939394,0.0013041,0,0,140.979228045681,140.979228045681,71.53004409130608,69.93144279407855,70.73074344269232,157.1722217616333,111.62594379799084,45.54627796364244,2.847231474929164,1.412970332273232,mp-752849,752849
3339,Sr8Fe8O23,2.53943407,-2.2631997197008547,34.8276254,9,8,124.07143316086828,123.14547839716916,75.04699168798336,73.74627277818155,74.39663223308246,157.1722217616333,111.62594379799084,45.54627796364244,2.847231474929164,1.412970332273232,mp-19004,19004
3340,Zn3Rh,3.88694406,-0.33225068999999996,0.0065856,0,0,127.95911846544232,127.54781247642497,55.03580560882289,36.48145182920538,45.75862871901414,157.1722217616333,111.62594379799084,45.54627796364244,2.847231474929164,1.412970332273232,mp-865342,865342
3341,BaMg2,2.54953502,-0.07198978750000003,0.159073925,0,0,21.594114928228585,21.584178229724003,13.397170284739357,13.05017097273094,13.22367062873515,157.1722217616333,111.62594379799084,45.54627796364244,2.847231474929164,1.412970332273232,mp-1935,1935
3342,NiAs2,6.41190615,-0.25570177166666674,5.055e-05,0,0,114.16932742383352,113.63649636144129,60.69318376562832,48.00420447518808,54.3486941204082,157.1722217616333,111.62594379799084,45.54627796364244,2.847231474929164,1.412970332273232,mp-19814,19814
3343,LiInPt2,6.56376891,-0.5502796883333332,0.0002759,0,0,129.8466836575932,129.84668365759316,2.374917183463337,171.87930711002596,87.12711214674465,157.1722217616333,111.62594379799084,45.54627796364244,2.847231474929164,1.412970332273232,mp-862774,862774
3344,ScO,8.34443757,-3.2404897350000006,0.0011904,0,0,174.44470400855423,174.44470400855425,102.96173075183579,90.75569319837476,96.85871197510528,157.1722217616333,111.62594379799084,45.54627796364244,2.847231474929164,1.412970332273232,mp-644481,644481
3345,La2O3,5.79518558,-3.8497440190000005,0.0,0,0,120.53558866997767,110.95110140906634,47.14545753499512,27.5268479125637,37.336152723779406,157.1722217616333,111.62594379799084,45.54627796364244,2.847231474929164,1.412970332273232,mp-1968,1968
3346,MgSc2,3.56926408,-0.03876781833333295,0.0337565,0,0,49.45975761342744,49.35111200815568,27.686313280590397,19.106482761358347,23.396398020974374,157.1722217616333,111.62594379799084,45.54627796364244,2.847231474929164,1.412970332273232,mp-864941,864941
3347,ZrSnTe,7.98006427,-0.8209886766666674,1e-07,0,0,81.76279969508244,81.76015581567076,55.22620489337365,52.55692070730088,53.89156280033727,157.1722217616333,111.62594379799084,45.54627796364244,2.847231474929164,1.412970332273232,mp-9289,9289
3348,ZrIN,4.5246068,-1.5905212649999985,0.0001038,0,0,40.0299834432138,4.0003156811451746,23.835435666325832,2.100049556589831,12.967742611457831,157.1722217616333,111.62594379799084,45.54627796364244,2.847231474929164,1.412970332273232,mp-580886,580886
3349,ScRu,5.96980545,-0.5430774349999989,0.0004422,0,0,144.19768430924003,144.19768430924003,52.92793609924682,50.28661030395451,51.60727320160066,157.1722217616333,111.62594379799084,45.54627796364244,2.847231474929164,1.412970332273232,mp-30867,30867
3350,BaCuO2,2.65410319,-1.9146426174999993,0.0004168,0,0,98.3169785202655,96.43779278165509,55.02979422198053,53.27186722263742,54.150830722308974,157.1722217616333,111.62594379799084,45.54627796364244,2.847231474929164,1.412970332273232,mp-752398,752398
3351,RbHgF3,-1.06282461,-2.23238786,1.61e-05,0,0,51.34442310652017,51.34442310652016,16.599058137563244,13.414961906298236,15.00701002193074,77.87951159666663,74.85621671666665,3.0232948799999986,1.738762456461491,1.412970332273232,mp-7482,7482
3352,NaCuO,2.01292192,-1.2324577538505743,2.15e-06,0,0,46.48179994279765,45.50446483646011,23.019385521294847,20.365796918214443,21.692591219754647,6.912161221434002,2.4314877087195845,4.480673512714417,2.1167601452962064,1.412970332273232,mp-7469,7469
3353,Ni3TeO6,6.18059118,-1.3826438665000005,0.000111,6,3,157.50938049950707,156.286102430432,77.88720986611051,77.24938304366358,77.56829645488705,10.063172943332775,5.333453166666106,4.729719776666668,2.174791892725984,0.401485887533452,mp-19448,19448
3354,HfO2,3.17051758,-4.010180912916666,0.0,0,0,217.78722118472302,214.04193493495544,104.40344029917905,99.18087350145693,101.79215690031799,157.1722217616333,111.62594379799084,45.54627796364244,2.847231474929164,1.412970332273232,mp-775757,775757
3355,MnPtF6,-0.96247226,-2.199606686616379,4.9996873,1,1,27.937904975274332,22.090320645731417,24.968439259206114,14.032167065156544,19.50030316218133,5.725117409999521,2.326272539999521,3.39884487,1.8435956362499886,1.412970332273232,mp-557668,557668
3356,VMoO5,2.14459942,-2.1071854071428566,3e-07,4,2,99.5270379672089,62.557317189376526,53.00484693885021,39.51119107647397,46.258019007662085,36.73444009,30.621752766666663,6.112687323333333,2.472384946429931,2.312964171320369,mp-674948,674948
3357,MgO,1.59546946,-2.9619764337499994,0.000164275,0,0,115.58237986809685,115.29988025269682,48.77566361859119,47.91992902486759,48.34779632172939,5.990326106666664,2.9537680433333313,3.036558063333334,1.7425722548386147,1.3762501280653894,mp-776911,776911
3358,Na3AlF6,-1.6743413,-3.3820482144655175,0.0,0,0,49.809963648441425,49.6029306448059,27.51953311229844,25.70557437366667,26.612553742982556,157.1722217616333,111.62594379799084,45.54627796364244,2.847231474929164,1.412970332273232,mp-676512,676512
3359,TiFeSi,7.71271642,-0.712096355555556,0.12154074999999999,6,2,183.40039120350832,183.22426432798366,112.91239912747061,104.61399838760802,108.76319875753931,157.1722217616333,111.62594379799084,45.54627796364244,2.847231474929164,1.412970332273232,mp-8648,8648
3360,SbRh2,8.68020195,-0.36012917000000044,0.000814725,0,0,172.90158375118625,165.53387350736702,52.014148285152736,50.15441432258986,51.08428130387129,157.1722217616333,111.62594379799084,45.54627796364244,2.847231474929164,1.412970332273232,mp-21359,21359
3361,Li2ZrO3,1.20637197,-3.0402037461111107,0.0,0,0,115.49979070775245,86.22933644747154,66.21579477918654,51.02257599484878,58.61918538701766,38.09093577000001,33.86164908666668,4.229286683333334,2.0565229595930443,1.412970332273232,mp-4156,4156
3362,BeAl2O4,5.01666759,-3.3529182539285713,0.000239525,0,0,214.76000950796924,214.18946717122512,147.43180668817058,144.80349047464438,146.11764858140748,9.43335317,6.264617906666667,3.168735263333333,1.780094172602487,1.412970332273232,mp-3081,3081
3363,K2PtBr6,-0.33168394,-1.3512537234444442,0.0005907,0,0,10.001142551953722,10.00114255195372,5.770318984473771,5.5635665948638735,5.666942789668822,14.609378709992802,10.67707441332614,3.9323042966666626,1.983003856946996,1.412970332273232,mp-27691,27691
3364,Fe9Co7,5.51196633,-0.06777360468750082,36.6574451,16,5,190.37169053354665,190.37169053354663,102.84102823186088,90.9305332847142,96.88578075828754,157.1722217616333,111.62594379799084,45.54627796364244,2.847231474929164,1.412970332273232,mp-601842,601842
3365,TiO2,2.05967959,-3.493553009444445,1.35e-06,0,0,189.78150727251023,174.21173920207565,58.65216294881745,54.12125139964474,56.38670717423109,157.1722217616333,111.62594379799084,45.54627796364244,2.847231474929164,1.412970332273232,mp-34688,34688
3366,SiRh,8.41254696,-0.7803849312500004,0.0002528,0,0,200.97697835178056,189.19510363966262,98.39795341312698,91.81224583215341,95.1050996226402,157.1722217616333,111.62594379799084,45.54627796364244,2.847231474929164,1.412970332273232,mp-818,818
3367,Li3P7,3.2690883,-0.35957199533333367,0.00025835,0,0,24.62230355570366,24.054317780343087,12.046163183879816,11.624675676217175,11.835419430048496,10.972950769999999,4.288795246666667,6.684155523333334,2.585373381802585,0.12725999999999998,mp-28336,28336
3368,LiTiO2,5.75815038,-2.9499596316666663,0.9367091,2,1,147.2204317350682,138.26193883033417,98.24453720177316,85.61455945012526,91.92954832594921,157.1722217616333,111.62594379799084,45.54627796364244,2.847231474929164,1.412970332273232,mp-764648,764648
3369,KCoO2,1.53967813,-1.432609267000001,3.9985399,6,2,59.13688795134986,49.687067646500616,26.03011761400056,21.00873362505886,23.51942561952971,157.1722217616333,111.62594379799084,45.54627796364244,2.847231474929164,1.412970332273232,mp-18895,18895
3370,MoS2,5.19161444,-1.2013580954166667,4.8e-06,0,0,50.40781791864778,3.0762457168500226,34.50944803328704,1.3270783006056328,17.91826316694634,10.162156303670244,0.10130624993117726,10.060850053739067,3.1718843064870867,0.7393495988916902,mp-1434,1434
3371,NbCrO4,1.87676334,-2.7145691916666657,2.9999182,1,1,170.52879860823046,159.25060850116137,69.34598460739105,50.98091427833778,60.16344944286441,68.33186010666664,62.22057614333331,6.1112839633333325,2.472101123201341,3.5355349999999985,mp-754908,754908
3372,SiS2,2.37279572,-0.959543407083333,0.0001663,0,0,25.390701899724096,23.54399437440841,21.753448754903697,16.726077222060557,19.239762988482127,7.415675446666666,2.3577366533333333,5.057938793333334,2.248986170107174,0.13295000000000007,mp-7583,7583
3373,LiPt3,5.81940507,-0.4161054508333333,0.0001206,0,0,179.4612551999373,179.46125519993743,87.60616133563606,80.56768173921019,84.08692153742312,157.1722217616333,111.62594379799084,45.54627796364244,2.847231474929164,1.412970332273232,mp-861931,861931
3374,YInPd2,6.14387217,-0.8182552566666663,0.0001404,0,0,102.42802730403564,102.42802730403557,28.701339173742433,26.01065158036965,27.35599537705604,157.1722217616333,111.62594379799084,45.54627796364244,2.847231474929164,1.412970332273232,mp-568880,568880
3375,YCuP2,6.81632474,-0.8696949120833333,3.37e-05,0,0,104.93239921057696,104.52238104256121,51.64319306077079,46.43347945831432,49.03833625954256,157.1722217616333,111.62594379799084,45.54627796364244,2.847231474929164,1.412970332273232,mp-30208,30208
3376,Si,9.19389817,0.5315620000000001,0.000356,0,0,82.80949877033667,82.80949877033663,-9.425940703633065,23.537062981602375,7.055561138984655,157.1722217616333,111.62594379799084,45.54627796364244,2.847231474929164,1.412970332273232,mp-27,27
3377,Mg(InTe2)2,3.6026189,-0.7205191485714282,0.0005118,0,0,22.852603452636185,22.154918262192684,13.000255386738425,10.555352416172127,11.777803901455275,12.311097043333334,3.1633958,9.147701243333335,3.0245166958265144,0.18585999999999997,mp-35777,35777
3378,FeCuS2,4.43645935,-0.5149157865625007,3.03964875,2,1,56.841601088119,55.31725827680578,20.450122582782015,17.83203263243999,19.141077607611003,157.1722217616333,111.62594379799084,45.54627796364244,2.847231474929164,1.412970332273232,mp-3497,3497
3379,WO3,0.48270218,-2.18317011125,0.0003122,0,0,223.43885052712162,223.43885052712164,152.35809115835028,97.0645308341739,124.71131099626209,14.651973836666656,7.290274893333328,7.3616989433333275,2.7132450945930646,1.412970332273232,mp-19390,19390
3380,VCo2Sn,8.47176094,-0.09214594874999982,2.9994656,3,2,175.00655020895292,175.00655020895297,74.84362372098313,64.87182336008287,69.857723540533,157.1722217616333,111.62594379799084,45.54627796364244,2.847231474929164,1.412970332273232,mp-21469,21469
3381,ScVO4,1.36927238,-3.0418699458333336,3.9e-05,0,0,148.50064779929534,147.00469614630583,41.52473022090223,17.6509590802414,29.587844650571814,21.099525216666667,16.024107043333334,5.075418173333334,2.252868876196157,1.412970332273232,mp-19247,19247
3382,Zr(MoO4)2,-1.54303437,-2.4660734954545465,0.0014207,0,0,32.032134140887074,12.623667285582155,17.932127487329367,10.208959423426254,14.07054345537781,11.347475573333332,7.620234369999999,3.7272412033333335,1.9306064340857598,1.412970332273232,mp-510456,510456
3383,Cu3AsS4,4.78136093,-0.4428109496874999,5.11e-05,0,0,73.92377967470618,73.92377967470618,27.04445221189668,24.079992183204258,25.56222219755047,157.1722217616333,111.62594379799084,45.54627796364244,2.847231474929164,1.412970332273232,mp-20545,20545
3384,NiSe,7.07737837,-0.4729776411718749,1.5e-06,0,0,119.22984539545266,118.82978722228543,26.11348642742066,23.246216962274342,24.6798516948475,157.1722217616333,111.62594379799084,45.54627796364244,2.847231474929164,1.412970332273232,mp-662,662
3385,NbCu3Te4,4.55881623,-0.5025324437500007,0.0042027,0,0,29.95029737483567,29.95029737483567,20.14123982377572,20.077447363053928,20.109343593414824,10.280650780000006,0.4564059299999999,9.824244850000005,3.1343651430552892,0.05857000000000001,mp-991676,991676
3386,AsBr3,-2.02145983,-0.8630746506250002,0.0,0,0,1.3102778288399914,1.2869878738539637,1.3112634104941272,0.9694950084442255,1.1403792094691765,157.1722217616333,111.62594379799084,45.54627796364244,2.847231474929164,1.412970332273232,mp-23317,23317
3387,Al2O3,5.10698188,-3.337808790500001,0.0,0,0,182.72777598227714,180.98753834343646,85.85073268561547,80.67351682143351,83.26212475352449,157.1722217616333,111.62594379799084,45.54627796364244,2.847231474929164,1.412970332273232,mp-755066,755066
3388,YAl4Ni,6.9517866,-0.5569999844444448,0.00051765,0,0,92.58514539686574,92.28621853120137,60.688518692620924,57.48986315998314,59.08919092630203,157.1722217616333,111.62594379799084,45.54627796364244,2.847231474929164,1.412970332273232,mp-3602,3602
3389,FeO2F,0.9646732,-1.2572938093749997,5.00008105,6,2,92.96653142820816,80.08437904108436,66.66642798892055,45.6328286339162,56.14962831141837,157.1722217616333,111.62594379799084,45.54627796364244,2.847231474929164,1.412970332273232,mp-758879,758879
3390,MgAsPt5,6.74627338,-0.47846120499999906,0.0043087,0,0,182.0470460355137,181.66827604366122,72.44842862747481,68.2771567294379,70.36279267845636,157.1722217616333,111.62594379799084,45.54627796364244,2.847231474929164,1.412970332273232,mp-865146,865146
3391,Na2GeO3,0.06451167,-2.139358738850575,0.00070735,0,0,53.78012448425268,52.59457705651568,28.936247704542534,26.443242147229565,27.68974492588605,11.718331639999997,8.805021986666665,2.9133096533333336,1.7068420118257381,0.9552308312654068,mp-5784,5784
3392,MnGaNi2,6.373966,-0.2952288788577597,3.9753527,3,2,158.06801166566532,157.4779640645494,73.55514996887061,53.34915992543498,63.45215494715279,157.1722217616333,111.62594379799084,45.54627796364244,2.847231474929164,1.412970332273232,mp-601285,601285
3393,Zn(RhO2)2,3.86507589,-1.301455864285715,1.06e-05,0,0,173.96147892874498,173.961478928745,58.63229756168599,58.364348512546144,58.498323037116066,13.149370039999994,4.088100703333332,9.061269336666664,3.0101942357041787,1.412970332273232,mp-5146,5146
3394,PtF6,-3.11831946,-1.4592217096428572,1.999437925,4,1,7.889596704407444,7.59845517166338,2.449793571320179,2.336078676310766,2.3929361238154723,157.1722217616333,111.62594379799084,45.54627796364244,2.847231474929164,1.412970332273232,mp-505319,505319
3395,VCrO4,1.62606862,-2.2981137258333333,2.99999995,4,2,150.60533631138352,100.47884476605984,82.19851715807904,65.62666625713037,73.9125917076047,157.1722217616333,111.62594379799084,45.54627796364244,2.847231474929164,1.412970332273232,mp-752903,752903
3396,Hf,5.12378591,0.07240820999999897,0.0002323,0,0,101.24273216811828,101.24273216811831,48.46783427173236,41.2051980466038,44.83651615916808,157.1722217616333,111.62594379799084,45.54627796364244,2.847231474929164,1.412970332273232,mp-8640,8640
3397,CsI3,0.51099331,-1.1166632701077588,0.0,0,0,5.251473158946826,5.060584363565035,2.3087711291463195,1.7839729574774645,2.046372043311892,8.25663692,4.413443436666667,3.8431934833333337,1.960406458705269,1.412970332273232,mp-22876,22876
3398,Pd(SCl3)2,-0.19676046,-0.7008422806944444,0.0,0,0,4.088823162772499,3.092535520909809,2.714823881117265,2.148648980506707,2.431736430811986,5.32336536,1.7826490433333333,3.5407163166666664,1.8816791216003503,1.412970332273232,mp-28174,28174
3399,WO3,-0.37543725,-2.18109082125,3.7833333333333333e-06,0,0,151.0128042625169,148.5301554519639,74.88931585964822,70.45711066245545,72.67321326105184,69.26009138334557,63.468086823345566,5.79200456,2.406658380410481,11.874249569762295,mp-32662,32662
3400,KMgF3,-1.50326687,-3.5478566881,7.05e-05,0,0,64.075877831704,64.075877831704,42.30373450972652,42.20675810074014,42.25524630523333,6.928200843333336,4.870838943333335,2.0573619000000023,1.4343506893364684,1.412970332273232,mp-3448,3448
3401,FeS,4.338625,-0.7579213340625008,2.76e-05,0,0,50.651340075148276,8.880757875514949,33.486261189236934,3.526536764189577,18.506398976713257,157.1722217616333,111.62594379799084,45.54627796364244,2.847231474929164,1.412970332273232,mp-505531,505531
3402,LiNi2Ge,7.38441401,-0.3625631970833343,0.0029576,0,0,133.09765093519428,133.09765093519403,60.81728270133822,12.575057646345472,36.69617017384185,157.1722217616333,111.62594379799084,45.54627796364244,2.847231474929164,1.412970332273232,mp-16349,16349
3403,K2SO4,-0.05204669,-2.277885091660714,0.00063755,0,0,28.993089986357777,28.98857700420803,14.687659506756374,13.992122342280087,14.33989092451823,157.1722217616333,111.62594379799084,45.54627796364244,2.847231474929164,1.412970332273232,mp-4529,4529