,formula_pretty,efermi,formation_energy_per_atom,total_magnetization_normalized_formula_units,num_magnetic_sites,num_unique_magnetic_sites,k_voigt,k_reuss,g_voigt,g_reuss,g_vrh,e_total,e_ionic,e_electronic,n,e_ij_max,material_id,b
0,VO2,2.60414524,-2.408770690000002,0.9999974,4,4,107.4791120562216,87.52025501335737,64.85418786207379,43.2225841770206,54.03838601954719,157.1722217616333,111.62594379799084,45.54627796364244,2.847231474929164,1.412970332273232,mp-715553,715553
1,TlSe,3.54869644,-0.5111776640885415,3.0775e-05,0,0,22.63895216326081,20.741020569342457,10.144060394012259,8.314246392225995,9.229153393119127,27.320986988764563,15.890158082703794,11.430828906060768,3.3809508878510446,1.412970332273232,mp-1836,1836
2,MnCoO3,3.22592316,-1.654938670586207,0.0007792,4,4,170.33381977578364,169.32543838410461,71.9536387988043,69.15320087608512,70.55341983744472,157.1722217616333,111.62594379799084,45.54627796364244,2.847231474929164,1.412970332273232,mp-20641,20641
3,K3BAs2,0.92648132,-0.34308927969444386,0.0005296,0,0,16.66622778054099,15.399652851637176,8.07318350424537,4.991356132521054,6.532269818383211,157.1722217616333,111.62594379799084,45.54627796364244,2.847231474929164,1.412970332273232,mp-9665,9665
4,YCBr,3.4322664,-1.2585473713888884,0.0169429,0,0,25.89436283341188,18.479464785540657,15.074088786524225,4.250191840113494,9.66214031331886,157.1722217616333,111.62594379799084,45.54627796364244,2.847231474929164,1.412970332273232,mp-643367,643367
5,PbS,0.21524809,-0.7260659290625,4.55e-06,0,0,13.440630012081161,-0.1736587123094663,9.565223714799185,-0.059234588827616334,4.752994562985784,135.66876949666667,129.79500947,5.873760026666667,2.423584128242027,4.343674921146839,mp-20526,20526
6,FeCl2,1.85176295,-1.1257440966666667,4.000335,1,1,17.83341460602551,4.778097463902534,11.579783774516699,1.47535883896843,6.527571306742565,157.1722217616333,111.62594379799084,45.54627796364244,2.847231474929164,1.412970332273232,mp-23229,23229
7,MoRh,7.77894705,-0.18898505750000005,0.0011197,0,0,266.71999050689016,265.8805185474212,136.033409820358,131.52082846579532,133.77711914307667,157.1722217616333,111.62594379799084,45.54627796364244,2.847231474929164,1.412970332273232,mp-12595,12595
8,AgClO4,0.34554408,-0.4157985444444445,6.29e-05,0,0,28.218420143786755,25.83758164859906,7.451199100031071,5.655976585560157,6.553587842795614,7.870760899999998,5.053427449999998,2.8173334499999996,1.6784914208896033,0.26677999999999985,mp-22993,22993
9,Ba3(AlGe)2,3.25094704,-0.4682189971428577,0.0035558,0,0,33.45567511873307,33.082174050318656,22.020864828223807,19.958636533233754,20.989750680728783,157.1722217616333,111.62594379799084,45.54627796364244,2.847231474929164,1.412970332273232,mp-10669,10669
10,TiOF2,-0.6001488,-3.5393881045833337,3.76e-05,0,0,135.71465742161837,132.85867380389186,88.36679830219278,53.520318218285276,70.94355826023903,157.1722217616333,111.62594379799084,45.54627796364244,2.847231474929164,1.412970332273232,mp-37473,37473
11,Li12Si7,3.2662577,-0.2219493805921053,0.00033615,0,0,36.09066211639512,36.08688278266071,32.586488280825414,30.808705346288697,31.697596813557055,157.1722217616333,111.62594379799084,45.54627796364244,2.847231474929164,1.412970332273232,mp-1314,1314
12,VPO4,3.00494408,-2.701056512222223,2.5e-08,4,1,112.57828771704297,99.33165658219188,67.71940919796653,64.11054736530426,65.9149782816354,8.887320466664766,5.049811956665551,3.8375085099992154,1.9589559744923355,1.412970332273232,mp-18835,18835
13,Li3Mg,0.75556875,-0.027404234999999888,0.0116184,0,0,19.58009911448695,19.58009911448695,10.096523307884294,6.421372952216189,8.258948130050241,157.1722217616333,111.62594379799084,45.54627796364244,2.847231474929164,1.412970332273232,mp-976256,976256
14,K2S,-0.34024571,-1.2226776997083337,5.55e-05,0,0,19.385871660457987,19.385871660457983,9.806659912128248,9.529589470201428,9.668124691164838,6.361371610202096,3.2656803835008237,3.095691226701273,1.7594576512952145,1.412970332273232,mp-1022,1022
15,CuPt,6.5617724,-0.15657242999999976,0.0001265,0,0,197.37671001612281,196.62731286362313,79.8147572172721,67.68799140655386,73.75137431191298,157.1722217616333,111.62594379799084,45.54627796364244,2.847231474929164,1.412970332273232,mp-644311,644311
16,TiOF,3.1988663,-3.3983178686111124,5.185e-05,0,0,63.908765379975435,9.815826863130592,47.91162444919386,10.208734957890906,29.06017970354238,157.1722217616333,111.62594379799084,45.54627796364244,2.847231474929164,1.412970332273232,mp-753059,753059
17,WN2,7.81670275,-0.5083264933333341,0.0001054,0,0,361.8552230482444,344.00498217395875,230.3260490016884,221.82744186085839,226.0767454312734,157.1722217616333,111.62594379799084,45.54627796364244,2.847231474929164,1.412970332273232,mp-999549,999549
18,CrSi2,10.99421511,-0.3119656488888896,1.6333333333333333e-06,0,0,195.62895119617235,195.228222855596,156.6114565933076,155.97260561402769,156.29203110366763,61.01467933337917,30.28315393337918,30.731525399999995,5.543602204343309,0.44256000000000006,mp-11191,11191
19,Cs3Sb2I9,1.40494013,-1.147193343485222,0.000192,0,0,8.413293372528827,8.378408037787853,4.0987628324983785,4.0215374286669725,4.0601501305826755,157.1722217616333,111.62594379799084,45.54627796364244,2.847231474929164,1.412970332273232,mp-541014,541014
20,PrBS3,3.39306814,-1.5542872857083339,0.00023035,0,0,53.87408232966757,52.077437468000426,24.82193478266894,19.502066600800326,22.162000691734633,157.1722217616333,111.62594379799084,45.54627796364244,2.847231474929164,1.412970332273232,mp-862754,862754
21,CaSi2,5.95646016,-0.2535912533333337,0.0001607,0,0,53.594183361586346,51.706210574139,10.340409272987085,335.8164657926017,173.0784375327944,157.1722217616333,111.62594379799084,45.54627796364244,2.847231474929164,1.412970332273232,mp-12892,12892
22,Sc5Sn3,5.98101057,-0.6836719218749989,0.00440285,0,0,72.734008575616,71.2910630925538,50.93666946758724,50.61940111160218,50.77803528959471,157.1722217616333,111.62594379799084,45.54627796364244,2.847231474929164,1.412970332273232,mp-17695,17695
23,Li14P2(N2O)3,2.46112659,-1.3150217899333336,7.55e-05,0,0,86.95457938453946,86.87125980531947,70.41220292574566,69.12649085624003,69.76934689099284,8.78064131666666,5.0486058733333365,3.732035443333323,1.931847676017269,1.412970332273232,mp-1020011,1020011
24,Hf3Te2,5.63420856,-0.7659245460000008,0.0003703,0,0,47.513897023132124,7.3270434029050024,30.250395975279584,9.129423143949268,19.689909559614428,157.1722217616333,111.62594379799084,45.54627796364244,2.847231474929164,1.412970332273232,mp-28919,28919
25,ScGaPd2,5.40928968,-0.8731770431249997,0.0005704,0,0,130.6569516035277,130.65695160352774,32.32802327185716,18.289254527751286,25.308638899804222,157.1722217616333,111.62594379799084,45.54627796364244,2.847231474929164,1.412970332273232,mp-30661,30661
26,Ni3C,8.16174219,0.0584423575000006,0.0050389,0,0,194.69529664372632,194.69020263230064,70.78923175867588,62.05995966460236,66.42459571163911,157.1722217616333,111.62594379799084,45.54627796364244,2.847231474929164,1.412970332273232,mp-7586,7586
27,Cs2PtCl6,-0.5846307,-1.6625519217624516,0.0003997,0,0,8.262151451125868,8.262151451125868,4.839033487419548,4.67659724089232,4.757815364155935,7.052707926644403,4.1487753866444095,2.903932539999994,1.7040928789241487,1.412970332273232,mp-23406,23406
28,Li(CoO2)2,1.63577455,-1.482078210476191,0.0030181,2,2,100.88656885367824,77.56912829331193,40.58730829736407,-535.8786961868128,-247.64569394472437,157.1722217616333,111.62594379799084,45.54627796364244,2.847231474929164,1.412970332273232,mp-552024,552024
29,Ti3ZnN,5.80409206,-0.9715119909999999,0.00730845,0,0,147.38591536620973,144.79760599993773,93.0144269521689,91.18048635159268,92.09745665188079,157.1722217616333,111.62594379799084,45.54627796364244,2.847231474929164,1.412970332273232,mp-1014257,1014257
30,InNi3,8.69695882,-0.06369582624999914,0.4069162,6,1,148.03534847425962,146.05895437849227,53.84139678997682,51.648966629105196,52.74518170954101,157.1722217616333,111.62594379799084,45.54627796364244,2.847231474929164,1.412970332273232,mp-22469,22469
31,Sc,3.77042314,0.047873135000000566,0.003523,0,0,51.2959344321384,51.295934432138374,24.002575930490448,19.198180000787602,21.600377965639026,157.1722217616333,111.62594379799084,45.54627796364244,2.847231474929164,1.412970332273232,mp-36,36
32,Li3Al,1.71783733,-0.07968219500000018,0.0012771,0,0,26.63256775052867,26.108187860665122,18.73685316868905,18.006701008619373,18.371777088654213,157.1722217616333,111.62594379799084,45.54627796364244,2.847231474929164,1.412970332273232,mp-975868,975868
33,InAgO2,3.44709786,-1.3965652904166665,0.00036555,0,0,113.164253815598,105.12033192946379,39.61735878431532,21.905425232308332,30.761392008311827,9.198429956660789,3.6061285866607893,5.592301369999999,2.364804721324786,1.412970332273232,mp-20329,20329
34,Cu3N,4.52308927,0.19230306874999936,0.000334,0,0,115.70790603003441,115.70790603003442,48.69712717348373,27.86243495904946,38.279781066266594,157.1722217616333,111.62594379799084,45.54627796364244,2.847231474929164,1.412970332273232,mp-1933,1933
35,MgCoO3,3.37239687,-1.8374216190000006,0.9991066,2,1,146.53231436496085,145.07580732621398,68.675985932832,64.81242000506941,66.7442029689507,157.1722217616333,111.62594379799084,45.54627796364244,2.847231474929164,1.412970332273232,mp-761524,761524
36,TlPd3O4,3.54000838,-0.9443212710416669,0.0004351,0,0,140.67341562645387,140.67341562645385,37.28103813225264,36.95477140591454,37.117904769083594,30.632194936666128,18.00083295666635,12.631361979999776,3.554062742833865,1.412970332273232,mp-5478,5478
37,CoSnO3,6.70990925,-1.749030689,3.0004988,2,1,155.19696432492088,149.4748087654588,60.11102161752154,54.56142914388027,57.3362253807009,157.1722217616333,111.62594379799084,45.54627796364244,2.847231474929164,1.412970332273232,mp-761574,761574
38,NdGaO3,3.06144001,-3.0537203045000005,1.5e-06,0,0,163.47990847130956,161.154622707191,77.83425368834702,74.44336814874664,76.13881091854682,22.63959384,17.808609993333334,4.8309838466666655,2.1979499190533587,1.412970332273232,mp-3196,3196
39,Sc(Al2Fe)4,7.34023736,-0.42552828961538364,5.1120658,4,1,126.43309435360841,126.42535275393999,86.99746433589804,83.77765193454513,85.38755813522158,157.1722217616333,111.62594379799084,45.54627796364244,2.847231474929164,1.412970332273232,mp-3701,3701
40,TiO2,-0.25145628,-3.469557906111111,1.75e-07,0,0,77.53316291443939,59.07738149675933,30.684536885884935,17.239170834944492,23.961853860414713,157.1722217616333,111.62594379799084,45.54627796364244,2.847231474929164,1.412970332273232,mp-754672,754672
41,Hg3Au,2.59969677,0.11669332375000008,0.0020389,0,0,46.72212720446683,33.643988394644374,-4.63568070959439,-16.431248177648857,-10.533464443621623,157.1722217616333,111.62594379799084,45.54627796364244,2.847231474929164,1.412970332273232,mp-973626,973626
42,InNi,10.8516132,-0.08252876500000017,0.0006807,0,0,125.65339166158313,125.65339166158317,45.68873866183705,36.51495424738891,41.10184645461298,157.1722217616333,111.62594379799084,45.54627796364244,2.847231474929164,1.412970332273232,mp-20997,20997
43,KZnF3,-1.19857267,-2.8179999301,0.0004138,0,0,68.78847994046161,68.78847994046161,33.83143890468349,33.6755406222166,33.75348976345005,10.035900480000002,7.68615678,2.3497437000000017,1.5328873735535828,1.412970332273232,mp-5878,5878
44,SrInPt,5.30770479,-0.7652059997222219,0.00057015,0,0,62.47843219365515,62.10022155848191,25.660367565458365,24.038514055824606,24.849440810641486,157.1722217616333,111.62594379799084,45.54627796364244,2.847231474929164,1.412970332273232,mp-22284,22284
45,Cs2HgO2,0.69772663,-1.2912457101724137,0.0001713,0,0,21.117612890899757,18.04562794910482,8.885039049070508,8.27269500154834,8.578867025309425,9.611030466666664,6.444494849999999,3.166535616666666,1.7794762197530671,1.412970332273232,mp-7232,7232
46,Sr4TiN4,2.79616503,-1.1014515272222225,0.002451,0,0,73.46659699653648,72.56212293289265,36.103692829585064,29.93624229167296,33.01996756062901,20.059941620000004,13.538486036666669,6.521455583333335,2.5537140762687853,1.412970332273232,mp-1029799,1029799
47,CaSn,5.06277154,-0.644165025,0.00012525,0,0,38.0451628294375,38.02068213140976,22.87591996433611,20.293885658981157,21.584902811658633,157.1722217616333,111.62594379799084,45.54627796364244,2.847231474929164,1.412970332273232,mp-2450,2450
48,NdNiO2,5.68453935,-2.2842844925000003,0.9826216,1,1,147.4243686275629,144.34558735559122,75.35238910448007,60.557838490513724,67.95511379749689,157.1722217616333,111.62594379799084,45.54627796364244,2.847231474929164,1.412970332273232,mp-31063,31063
49,BaTiO3,3.68008395,-1.685623257666667,0.2176743,0,0,33.11366723812185,13.083135048238217,19.284603401702004,-13.078013140967574,3.103295130367215,157.1722217616333,111.62594379799084,45.54627796364244,2.847231474929164,1.412970332273232,mp-995191,995191
50,RbMgF3,-1.46936985,-3.507344585,0.0005929,0,0,65.28140972735656,65.28140972735657,42.44876677483735,41.42016634861381,41.934466561725586,6.478023223333326,4.2925045533333295,2.1855186699999973,1.4783499822437167,1.412970332273232,mp-8402,8402
51,SnPS3,3.85041273,-0.6435424735416675,0.001097375,0,0,17.28452770577614,15.276816933750995,12.51444075639585,10.265250423298806,11.389845589847328,157.1722217616333,111.62594379799084,45.54627796364244,2.847231474929164,1.412970332273232,mp-4252,4252
52,MgGaPd2,5.29738278,-0.7180220018749996,0.0001503,0,0,131.55163801283146,131.55163801283155,42.986194605200076,24.891360035974948,33.93877732058751,157.1722217616333,111.62594379799084,45.54627796364244,2.847231474929164,1.412970332273232,mp-865123,865123
53,Ba(PdO2)2,2.04374005,-1.5184776164285714,1.10301865,4,1,93.33523171853291,82.2586488566932,33.70475195563683,20.442359071460125,27.073555513548477,157.1722217616333,111.62594379799084,45.54627796364244,2.847231474929164,1.412970332273232,mp-759541,759541
54,NbSe2,3.76494283,-1.1387790257291666,0.230688175,2,3,35.71749718578466,9.652036981636792,23.873134128137334,5.267602044429048,14.57036808628319,157.1722217616333,111.62594379799084,45.54627796364244,2.847231474929164,1.412970332273232,mp-643063,643063
55,Li4SiO4,0.96866532,-2.6748834581481478,1.615e-05,0,0,79.72648359571615,79.29918402381914,54.80671896435965,50.62243811310874,52.7145785387342,7.9348995133333355,5.211546933333334,2.7233525800000007,1.6502583373520645,1.412970332273232,mp-11737,11737
56,CrSi,9.15775752,-0.25362728624999953,0.545133175,4,1,187.00405212101563,187.00405212101566,116.07957967640074,116.01650682545598,116.04804325092836,157.1722217616333,111.62594379799084,45.54627796364244,2.847231474929164,1.412970332273232,mp-7576,7576
57,BaBrCl,-0.38924365,-2.740771776666667,0.00030615,0,0,14.94463849648627,14.704206322251181,7.157220660735321,4.787267751414011,5.9722442060746666,157.1722217616333,111.62594379799084,45.54627796364244,2.847231474929164,1.412970332273232,mp-28049,28049
58,Sr(MnSb)2,3.93152889,-0.2772477565057471,9.0054098,2,1,35.11366576241971,32.289285467964454,18.80261101748804,15.726158201286907,17.264384609387474,157.1722217616333,111.62594379799084,45.54627796364244,2.847231474929164,1.412970332273232,mp-2968,2968
59,Sr(MnP)2,5.15591785,-0.6284219638390809,4.1806021,2,1,78.25281251582577,77.7521644039134,49.978741819958486,42.39860068123281,46.18867125059565,157.1722217616333,111.62594379799084,45.54627796364244,2.847231474929164,1.412970332273232,mp-5589,5589
60,MnCoO4,3.24644339,-1.3759542121551729,4.0924745,2,2,176.0664370461726,169.15891523033457,91.84141330967635,72.64993276118551,82.24567303543094,157.1722217616333,111.62594379799084,45.54627796364244,2.847231474929164,1.412970332273232,mp-761556,761556
61,LiV2O4,3.19090676,-2.4266582404761903,3.0000137,2,2,89.6172009592698,50.92585963927256,55.740694216988715,21.04094532744733,38.39081977221802,157.1722217616333,111.62594379799084,45.54627796364244,2.847231474929164,1.412970332273232,mp-754922,754922
62,Fe3Sn,7.61006002,0.08453976374999961,6.7244635,3,1,118.85855081985454,118.85855081985456,67.77222514334174,50.96693945219606,59.3695822977689,157.1722217616333,111.62594379799084,45.54627796364244,2.847231474929164,1.412970332273232,mp-22461,22461
63,SrPt2,5.61984581,-0.8524458972222213,0.00070175,0,0,118.0271256761601,118.0271256761601,50.715537811986934,49.0251655055404,49.87035165876367,157.1722217616333,111.62594379799084,45.54627796364244,2.847231474929164,1.412970332273232,mp-1349,1349
64,Y4Al2O9,1.95166822,-3.8050151882777783,0.000188475,0,0,132.53380041668407,132.04650090188377,64.6666382599084,63.97340350248453,64.32002088119646,157.1722217616333,111.62594379799084,45.54627796364244,2.847231474929164,1.412970332273232,mp-5409,5409
65,VZnRu2,6.57955886,-0.21965784,0.004289,0,0,227.5346772200004,227.5346772200004,86.74506808974074,75.91931034577799,81.33218921775936,157.1722217616333,111.62594379799084,45.54627796364244,2.847231474929164,1.412970332273232,mp-865486,865486
66,GeSe,2.74902105,-0.4516834374218748,0.001373725,0,0,24.03546344714595,18.197877641058444,17.013864619177408,11.5898297766787,14.301847197928055,39.52684125333332,16.230312833333333,23.296528419999998,4.826647741445401,1.412970332273232,mp-700,700
67,LiAl2Pd,7.66538372,-0.6404172683333336,0.0022866,0,0,104.17637306872943,104.1763730687294,61.68154567506079,32.872233457163944,47.27688956611237,157.1722217616333,111.62594379799084,45.54627796364244,2.847231474929164,1.412970332273232,mp-30817,30817
68,Yb(ZnAs)2,3.31080197,-0.69123151,0.0003485,0,0,60.15049922240357,59.27579219301755,39.396102625686765,37.13918442765962,38.2676435266732,157.1722217616333,111.62594379799084,45.54627796364244,2.847231474929164,1.412970332273232,mp-10314,10314
69,CaZnSi,4.20188067,-0.42775888666666617,0.00826245,0,0,59.399279714388676,50.06783521320433,44.91547105947761,39.83287065050335,42.37417085499048,157.1722217616333,111.62594379799084,45.54627796364244,2.847231474929164,1.412970332273232,mp-16266,16266
70,ScInO3,3.77556724,-2.909252085,2.7e-06,0,0,153.86409989059135,150.98141813666646,61.358491794579734,57.72580511309645,59.542148453838095,157.1722217616333,111.62594379799084,45.54627796364244,2.847231474929164,1.412970332273232,mp-768358,768358
71,Sr2GaSbO6,3.77287203,-2.6303210460833326,7.48e-05,0,0,144.27621053756607,144.27131644179656,72.09855764274049,69.43061921969988,70.76458843122018,157.1722217616333,111.62594379799084,45.54627796364244,2.847231474929164,1.412970332273232,mp-6304,6304
72,TiNi,7.34818853,-0.3473606516666665,0.0004787,0,0,160.08341294317196,160.0834129431719,33.21756271032517,20.404789320892288,26.81117601560873,157.1722217616333,111.62594379799084,45.54627796364244,2.847231474929164,1.412970332273232,mp-571,571
73,Sr4Cu2O7,2.47863839,-2.3420248997435893,0.00015075,0,0,96.52662671296387,94.1502679468852,53.84309219026536,51.56383642811262,52.70346430918899,17.965639966666668,10.015923416666666,7.949716550000001,2.8195241708486916,1.412970332273232,mp-766217,766217
74,Zr2SN2,5.31340324,-1.8767761306250008,0.0009442,0,0,157.6195585655593,155.86992632776415,78.30527988301965,73.03304291149901,75.66916139725933,27.672866533333135,18.128594723333133,9.54427181,3.0893804896775015,1.412970332273232,mp-553875,553875
75,Ca3N2,2.68115104,-0.919754648,0.0001178,0,0,71.89343569497123,71.25557597909507,38.576115483117306,37.859265373108386,38.217690428112846,157.1722217616333,111.62594379799084,45.54627796364244,2.847231474929164,1.412970332273232,mp-1047,1047
76,YMgHg2,3.99366029,-0.4647696341666667,0.0013627,0,0,62.3127796391314,62.31277963913138,26.07300719356633,21.305641800844167,23.68932449720525,157.1722217616333,111.62594379799084,45.54627796364244,2.847231474929164,1.412970332273232,mp-866164,866164
77,Fe2CuGe2,6.911534,-0.07975051399999984,2.79748425,4,2,130.77781986730517,127.03744577603518,66.85649450050194,56.16783520055379,61.51216485052787,157.1722217616333,111.62594379799084,45.54627796364244,2.847231474929164,1.412970332273232,mp-21141,21141