,formula_pretty,efermi,formation_energy_per_atom,total_magnetization_normalized_formula_units,num_magnetic_sites,num_unique_magnetic_sites,k_voigt,k_reuss,g_voigt,g_reuss,g_vrh,e_total,e_ionic,e_electronic,n,e_ij_max,material_id,b
934,Sb2Pd,6.98855154,-0.4792845200000002,2.115e-05,0,0,84.45962444809878,84.4596244480988,31.043401510986886,25.29995489908142,28.171678205034155,157.1722217616333,111.62594379799084,45.54627796364244,2.847231474929164,1.412970332273232,mp-1356,1356
935,YRh5,5.30882995,-0.2922478394444437,0.0013079,0,0,178.41669324144902,176.8227334478431,77.11308811625555,74.32800400396704,75.7205460601113,157.1722217616333,111.62594379799084,45.54627796364244,2.847231474929164,1.412970332273232,mp-11565,11565
936,SiSn,5.53362695,0.19199681749999975,5.5e-06,0,0,58.70163718475491,58.7016371847549,39.12146884477861,36.95726318433022,38.03936601455442,157.1722217616333,111.62594379799084,45.54627796364244,2.847231474929164,1.412970332273232,mp-1009813,1009813
937,Sr3WN3,3.96332443,-0.9537639457142859,0.0001296,0,0,56.860167603602264,56.30076598689482,30.272043043672493,29.73973605677607,30.005889550224282,25.609512720020717,7.00601104335405,18.603501676666667,4.313177677382033,1.412970332273232,mp-1029655,1029655
938,YbSi2,5.4869196,-0.3055814800000001,1.59e-05,0,0,58.50091152107868,55.49686998688321,17.407977236376578,-403.12787636275243,-192.85994956318794,157.1722217616333,111.62594379799084,45.54627796364244,2.847231474929164,1.412970332273232,mp-1671,1671
939,NbTe2,5.88964367,-0.7064418400000001,0.0110256,0,0,28.326481264756413,8.231393294506196,19.260211756001286,7.964485449947727,13.612348602974507,157.1722217616333,111.62594379799084,45.54627796364244,2.847231474929164,1.412970332273232,mp-1018150,1018150
940,Rb,0.34440074,0.01534120250000004,0.0022741,0,0,2.805633109630415,2.805633109630415,0.4724280018094041,16.111061727060026,8.291744864434715,157.1722217616333,111.62594379799084,45.54627796364244,2.847231474929164,1.412970332273232,mp-12628,12628
941,ScAlNi2,7.07468705,-0.6274300212499995,3.71e-05,0,0,132.86324961228226,132.86324961228226,58.16104502230966,54.83956124781806,56.50030313506386,157.1722217616333,111.62594379799084,45.54627796364244,2.847231474929164,1.412970332273232,mp-10898,10898
942,Y3GaC,3.14631909,-0.4785647775000001,8.39e-05,0,0,78.87193109822391,78.87193109822391,64.2710059421988,63.589145399240785,63.93007567071979,157.1722217616333,111.62594379799084,45.54627796364244,2.847231474929164,1.412970332273232,mp-10601,10601
943,Si,9.54130828,0.4898239525000001,2.44e-05,0,0,85.51868212721044,82.82076696973992,21.762319505069726,-77.27930707073672,-27.758493782833497,157.1722217616333,111.62594379799084,45.54627796364244,2.847231474929164,1.412970332273232,mp-1001113,1001113
944,NbInS2,5.74388859,-1.1165164165625008,0.0011074,0,0,53.283264482527244,51.2446218958634,33.83447087338857,19.145169706293483,26.489820289841028,157.1722217616333,111.62594379799084,45.54627796364244,2.847231474929164,1.412970332273232,mp-1018022,1018022
945,Ni,7.98945404,0.026142355000000173,0.63345115,2,1,197.07709079544728,197.07580743756412,78.4037878745241,73.04988052669745,75.72683420061077,157.1722217616333,111.62594379799084,45.54627796364244,2.847231474929164,1.412970332273232,mp-10257,10257
946,Bi2O3,5.9474036,-1.5708105630000007,1.41e-05,0,0,119.59161677941152,115.20766144018249,37.13772421238741,22.941003857605672,30.03936403499654,157.1722217616333,111.62594379799084,45.54627796364244,2.847231474929164,1.412970332273232,mp-1017552,1017552
947,Al6Ru,8.16752294,-0.32937833928571386,0.00013725,0,0,112.23119823671851,110.90674077561494,60.07485499265295,54.85410560730147,57.46448029997721,157.1722217616333,111.62594379799084,45.54627796364244,2.847231474929164,1.412970332273232,mp-16529,16529
948,GaCuO2,4.15341595,-1.6750175293749994,2.165e-05,0,0,158.1658434050752,143.07286807296532,68.45761281957071,48.976460273624,58.717036546597356,10.48849639001165,4.65093604001165,5.83756035,2.4161043748149624,1.412970332273232,mp-11019,11019
949,Ti2Al,4.37093904,0.5724899277777773,2.9953549,2,2,70.76227159958101,70.76227160021887,-5.477107435054568,-4.985528941360163,-5.231318188207365,157.1722217616333,111.62594379799084,45.54627796364244,2.847231474929164,1.412970332273232,mp-1008753,1008753
950,Cu2B2C,2.39295296,0.6488186243333338,0.0003927,0,0,103.16165165736793,78.78444949852303,12.86642844217351,0.7843860357854279,6.825407238979468,157.1722217616333,111.62594379799084,45.54627796364244,2.847231474929164,1.412970332273232,mp-1417806,1417806
951,ZnSnO3,3.85349028,-1.9259182679999995,6.13e-05,0,0,147.31740408269872,140.73292035937092,49.993866969104346,20.822750482996145,35.408308726050244,157.1722217616333,111.62594379799084,45.54627796364244,2.847231474929164,1.412970332273232,mp-14628,14628
952,Hf3Sb,6.23370809,-0.4190083093750001,8.08e-05,0,0,114.07846361025447,113.99487873324173,49.695655373762854,47.81923330605349,48.757444339908176,157.1722217616333,111.62594379799084,45.54627796364244,2.847231474929164,1.412970332273232,mp-15964,15964
953,VPt2,7.38773664,-0.5437946000000006,0.0083645,0,0,246.68557840258038,246.04309077904188,121.75248395083284,106.48142851601065,114.11695623342175,157.1722217616333,111.62594379799084,45.54627796364244,2.847231474929164,1.412970332273232,mp-12108,12108
954,SrMgSi,3.95927607,-0.36957623555555524,0.000352025,0,0,43.91907811230236,42.04255525400385,34.70521163228623,31.1775057857288,32.94135870900752,157.1722217616333,111.62594379799084,45.54627796364244,2.847231474929164,1.412970332273232,mp-15642,15642
955,V3Rh,6.39928473,-0.3217424637500006,0.00078655,0,0,216.60926312009008,216.60926312009008,108.49378375366294,102.04311982694169,105.26845179030232,157.1722217616333,111.62594379799084,45.54627796364244,2.847231474929164,1.412970332273232,mp-1578,1578
956,FeF4,-3.78347285,-1.9589896760000003,4.00002085,2,1,11.258246537060463,9.509196721264011,-1.4204629384562273,30.94068993598207,14.760113498762921,157.1722217616333,111.62594379799084,45.54627796364244,2.847231474929164,1.412970332273232,mp-1396678,1396678
957,ZnCu2GeTe4,4.52389191,-0.3978663968749996,7.44e-05,0,0,46.66384090942276,46.65584012667492,23.340616185661986,20.30834727087268,21.824481728267333,157.1722217616333,111.62594379799084,45.54627796364244,2.847231474929164,1.412970332273232,mp-12854,12854
958,Y2O3,2.59988937,-3.8987130176666667,8.4e-06,0,0,143.79544202267863,135.58066204900905,61.84796732846368,21.37112937110026,41.609548349781974,157.1722217616333,111.62594379799084,45.54627796364244,2.847231474929164,1.412970332273232,mp-13061,13061
959,Cr3Co,6.4582972,0.25212390500000126,0.3838337,7,2,243.0888424843454,242.75829395647258,-146.45275469788893,4.179312608009983,-71.13672104493948,157.1722217616333,111.62594379799084,45.54627796364244,2.847231474929164,1.412970332273232,mp-1025503,1025503
960,Mo3Pt,8.17780845,-0.11256009000000056,0.00115405,0,0,266.02910150084375,266.02910150084375,96.94129405993357,72.17554101084214,84.55841753538786,157.1722217616333,111.62594379799084,45.54627796364244,2.847231474929164,1.412970332273232,mp-1232,1232
961,MnAlPt2,7.29735609,-0.6881343744827584,4.1068332,1,1,178.50708917029877,178.5070891702988,38.4428474783584,-97.34387518695269,-29.450513854297142,157.1722217616333,111.62594379799084,45.54627796364244,2.847231474929164,1.412970332273232,mp-10893,10893
962,TiCr2,6.28257634,-0.08560897444444393,0.000176525,0,0,196.87942580831256,196.73407798142253,73.42730276006884,71.02641905114245,72.22686090560565,157.1722217616333,111.62594379799084,45.54627796364244,2.847231474929164,1.412970332273232,mp-1589,1589
963,LaMg,5.22206086,-0.11013377749999975,0.0132839,0,0,34.64475697261157,34.64475697261156,25.383625170845278,17.03260105697113,21.208113113908205,157.1722217616333,111.62594379799084,45.54627796364244,2.847231474929164,1.412970332273232,mp-1104,1104
964,SiRu2,9.1108581,-0.38135186083333156,0.00116365,0,0,258.48090410532336,255.05525740122627,103.78482305380084,100.11077277027698,101.94779791203891,157.1722217616333,111.62594379799084,45.54627796364244,2.847231474929164,1.412970332273232,mp-10025,10025
965,Y(AlSi)2,6.41168325,-0.35100284133333304,0.0069446,0,0,77.00340264075083,76.92473902387324,43.56911118623409,37.360184633762316,40.464647909998206,157.1722217616333,111.62594379799084,45.54627796364244,2.847231474929164,1.412970332273232,mp-10435,10435
966,Ca3Al3N5,4.37760424,-1.34901443909091,2.545e-05,0,0,115.13313869071732,110.64494565981907,65.2070464760985,51.49117163088748,58.34910905349299,17.09802021333333,11.846717563333334,5.2513026499999995,2.291572091381809,1.412970332273232,mp-1029921,1029921
967,ZrB2,7.38649634,-0.9873555361111102,0.0002305,0,0,238.3748113742704,237.49102467415037,229.45462675727563,223.1496166479384,226.302121702607,157.1722217616333,111.62594379799084,45.54627796364244,2.847231474929164,1.412970332273232,mp-1472,1472
968,VZn2N3,2.67297547,-0.579127649999999,1.04e-05,0,0,152.63849910665678,152.34847187781642,61.241395679848246,60.36004234242689,60.800719011137566,17.842527676666666,8.81788642,9.024641256666667,3.0041040688808813,0.9623034773916179,mp-1029262,1029262
969,CrSb,7.35969896,0.0016442175000008774,2.84592985,2,1,71.82162356530189,71.49081380269051,50.35536820310079,43.65104533416367,47.003206768632225,157.1722217616333,111.62594379799084,45.54627796364244,2.847231474929164,1.412970332273232,mp-1641,1641
970,Mg5Hg3,3.69307008,-0.21825949875000017,0.0003506,0,0,43.43108523225825,42.56091038831524,22.186355333353113,21.530464589809494,21.8584099615813,157.1722217616333,111.62594379799084,45.54627796364244,2.847231474929164,1.412970332273232,mp-11465,11465
971,ScZn12,3.28919946,-0.1365762826923078,0.0228949,0,0,80.91736455171352,80.84737984978483,48.76250103625408,47.791130914356806,48.27681597530544,157.1722217616333,111.62594379799084,45.54627796364244,2.847231474929164,1.412970332273232,mp-11567,11567
972,BAs,5.92325565,-0.01896014208333252,0.0015859,0,0,127.88155558053911,127.88155558053913,125.7106167103412,121.35842849455862,123.53452260244991,9.93924422000001,0.08446089000000011,9.854783330000009,3.139232920635232,0.04810666666666665,mp-10044,10044
973,Ga3Ni2,5.4724196,-0.4082663765,0.0005687,0,0,123.45082690230586,122.27814852579257,63.94544870490772,62.29570698135221,63.120577843129965,157.1722217616333,111.62594379799084,45.54627796364244,2.847231474929164,1.412970332273232,mp-11397,11397
974,MgMn2O4,3.98220962,-2.2703902244088687,8.000054425,8,1,140.81212958867889,137.86305535732163,64.324326833993,18.484291691661277,41.40430926282714,157.1722217616333,111.62594379799084,45.54627796364244,2.847231474929164,1.412970332273232,mp-1041928,1041928
975,LiSbAu,4.88820579,-0.385783951111111,0.00068,0,0,55.447120847164825,55.447120847164854,7.254503444340159,6.546984180804936,6.900743812572547,157.1722217616333,111.62594379799084,45.54627796364244,2.847231474929164,1.412970332273232,mp-12564,12564
976,Sc6NiTe2,6.08204933,-0.7810607566666674,0.2793871,0,0,73.05940937990125,72.74929486738205,34.6546370301917,25.49433642336368,30.074486726777693,157.1722217616333,111.62594379799084,45.54627796364244,2.847231474929164,1.412970332273232,mp-10446,10446
977,ZnSe,1.321407,-0.9515323261718751,0.0002941,0,0,58.26160401907752,58.26160401907752,29.395936503090912,25.663963425698455,27.52994996439468,10.714932109999985,3.392992329999997,7.321939779999988,2.7059083096069587,0.057089999999999946,mp-1190,1190
978,TiS,8.29920797,-1.7198331732291665,0.0003947,0,0,142.4022610953472,138.73996594959428,105.00452702136683,96.94807934886313,100.97630318511497,157.1722217616333,111.62594379799084,45.54627796364244,2.847231474929164,1.412970332273232,mp-1018028,1018028
979,Ga2Se3,1.84569574,-0.8681470094062504,0.00041075,0,0,28.050566648196007,27.102472825747036,20.61949880735363,17.634849271488832,19.12717403942123,12.088060103333333,4.091761046666666,7.996299056666667,2.8277728085308884,0.21392902850884224,mp-1340,1340
980,Sr3(AlGe)2,3.60207943,-0.4956995828571432,0.0005772,0,0,41.008997177715955,40.16350642905694,30.155500393388305,29.223124777183227,29.689312585285766,157.1722217616333,111.62594379799084,45.54627796364244,2.847231474929164,1.412970332273232,mp-10671,10671
981,YTlPd,5.71709898,-0.6666915377777782,5.666666666666667e-07,0,0,83.69798175519021,82.17060262104108,29.766490423615462,28.635841588580814,29.201166006098138,157.1722217616333,111.62594379799084,45.54627796364244,2.847231474929164,1.412970332273232,mp-11547,11547
982,MnAlPt,6.77659398,-0.6366058393103451,3.5311483,2,1,129.52391170076217,116.30405689613099,47.27373847532132,34.88889184190618,41.08131515861375,157.1722217616333,111.62594379799084,45.54627796364244,2.847231474929164,1.412970332273232,mp-10892,10892
983,Sc2AlSi2,7.0677018,-0.6790501319999998,0.00152555,0,0,101.63548847583041,101.39602423468932,76.14138803898335,72.39855494406447,74.2699714915239,157.1722217616333,111.62594379799084,45.54627796364244,2.847231474929164,1.412970332273232,mp-10676,10676
984,PdO,3.77256715,-0.7898176574999995,0.0014646,0,0,165.88872817823489,152.8607892876438,37.93530173597607,29.861138964833206,33.898220350404635,157.1722217616333,111.62594379799084,45.54627796364244,2.847231474929164,1.412970332273232,mp-1336,1336
985,ZrCd3,3.04000083,-0.10367936750000029,0.0015596,0,0,77.13762722834424,77.13762722834424,34.884359075669664,20.893693936838687,27.889026506254176,157.1722217616333,111.62594379799084,45.54627796364244,2.847231474929164,1.412970332273232,mp-11313,11313
986,Li2S,0.66187003,-1.503764779930556,7.54e-05,0,0,40.07612527460371,40.07612527460371,33.16333407207078,33.142482978633076,33.15290852535193,7.422140673288237,3.5579684366205413,3.8641722366676956,1.965749789944716,1.412970332273232,mp-1153,1153
987,Mn2Ge,6.19467066,0.13289045637930977,0.0001391,0,0,186.00990715862548,186.00990715862542,31.139207131598102,22.317268514629255,26.72823782311368,157.1722217616333,111.62594379799084,45.54627796364244,2.847231474929164,1.412970332273232,mp-1008920,1008920
988,HfV2,5.11951583,0.03478186166666575,0.2396469,4,1,144.8665496057299,144.8665496057301,2.7067364491410455,-20.65673132086496,-8.974997435861958,157.1722217616333,111.62594379799084,45.54627796364244,2.847231474929164,1.412970332273232,mp-1043,1043
989,LiCrN2,3.06080056,-0.6791987520833329,0.99037845,2,1,86.41545346334674,84.39985112015563,48.7730630432582,46.493221831153065,47.633142437205635,157.1722217616333,111.62594379799084,45.54627796364244,2.847231474929164,1.412970332273232,mp-1029395,1029395
990,Y2Al,4.10695126,-0.31470185694444436,0.00092395,0,0,55.03115584764292,54.206382941551226,30.554871956767904,28.756847225041756,29.655859590904832,157.1722217616333,111.62594379799084,45.54627796364244,2.847231474929164,1.412970332273232,mp-11230,11230
991,FeO2,-0.36162363,0.5598746766666677,2.45740845,2,1,15.518597286722716,15.518601999183653,0.02353487058437409,-23.31597370201748,-11.646219415716553,157.1722217616333,111.62594379799084,45.54627796364244,2.847231474929164,1.412970332273232,mp-1412685,1412685
992,BaPdF4,-0.30216251,-2.8533779433333333,0.0,0,0,53.49393652983491,53.325436475156614,16.045191970654447,13.929467532667694,14.98732975166107,6.5649063733333355,3.842814466666668,2.7220919066666673,1.6498763307189626,1.412970332273232,mp-12623,12623
993,MnSi,9.23793987,-0.4332087152155175,1.00129275,4,1,209.6108960493519,209.6108960493519,141.3215819047912,141.3171149577768,141.319348431284,157.1722217616333,111.62594379799084,45.54627796364244,2.847231474929164,1.412970332273232,mp-1431,1431
994,AlCr(WO4)2,2.61450308,-2.323592899166666,5.0000788,3,3,87.93186906572843,31.48025473727349,44.71925493910151,27.114777437202477,35.91701618815199,9.986591873333335,5.769331663333335,4.21726021,2.053596895693018,0.5369698734840626,mp-1041713,1041713
995,CaGa3Ni2,4.83740138,-0.48185687208333344,0.01644595,0,0,87.17497181425318,82.01318957230669,40.62581789336786,37.48099661487083,39.05340725411935,157.1722217616333,111.62594379799084,45.54627796364244,2.847231474929164,1.412970332273232,mp-11431,11431
996,SiC,8.09983558,-0.20450090249999953,2.8e-06,0,0,213.82362094748902,213.8050608402541,189.04402920706212,184.25238013910467,186.6482046730834,10.524086180000069,3.400765086666737,7.123321093333332,2.6689550564468734,0.06423169544702993,mp-11714,11714
997,NiSbSe,7.45885584,-0.5186300607812502,0.0001118,0,0,90.39091076932436,90.39091076932436,47.71118852981444,46.42698865001355,47.069088589913996,157.1722217616333,111.62594379799084,45.54627796364244,2.847231474929164,1.412970332273232,mp-10847,10847
998,PtSe2,3.18708468,-0.7020171048958327,1.8e-06,0,0,34.60298047982585,1.3141463636728856,21.102652093923513,1.34911281824883,11.225882456086172,15.999091763327414,0.717763489996258,15.281328273331154,3.9091339543856964,1.412970332273232,mp-1115,1115
999,RbO2,0.40860082,-0.9722602958333333,0.9999905,2,1,20.831262006540133,20.702702391890085,10.397439430556684,6.142366794544965,8.269903112550825,157.1722217616333,111.62594379799084,45.54627796364244,2.847231474929164,1.412970332273232,mp-12105,12105
1000,CrNi3,7.77721867,-0.005888877499999445,2.1876375,1,1,193.24183636943178,193.24183636943172,107.31755449193314,91.59380560228155,99.45568004710734,157.1722217616333,111.62594379799084,45.54627796364244,2.847231474929164,1.412970332273232,mp-1007974,1007974
1001,SrNi2Ge,5.27801879,-0.41906223291666667,0.01671635,0,0,75.19238872844241,68.12730902385111,37.36608335464939,26.077153439551008,31.7216183971002,157.1722217616333,111.62594379799084,45.54627796364244,2.847231474929164,1.412970332273232,mp-12520,12520
1002,RbVN2,2.16143941,-0.9159241406250009,2.5e-07,0,0,55.23467084080997,55.05746740970457,37.34495719553317,33.880856321286515,35.61290675840984,54.914163640000005,39.629494650000005,15.28466899,3.909561227299043,1.4460100000000002,mp-1029312,1029312
1003,Si,9.43627538,0.5254914900000003,5.1e-06,0,0,93.78578319299744,93.78578319299746,0.6762672352096236,77.13292863440886,38.90459793480924,157.1722217616333,111.62594379799084,45.54627796364244,2.847231474929164,1.412970332273232,mp-1014212,1014212
1004,Pr,3.51820211,0.03177305500000038,0.0021181,0,0,31.673165537382804,31.22281014064539,14.584032644599388,14.204911374589846,14.394472009594617,157.1722217616333,111.62594379799084,45.54627796364244,2.847231474929164,1.412970332273232,mp-1009594,1009594
1005,Nb3Sn,6.67674148,-0.163862066250001,0.62023085,0,0,165.19710186240076,165.19710186240079,28.925540392302764,27.955328948611818,28.440434670457293,157.1722217616333,111.62594379799084,45.54627796364244,2.847231474929164,1.412970332273232,mp-1326,1326
1006,ZnSiN2,5.61591766,-0.5025508637500007,0.0005316,0,0,105.64210330151364,102.71375746145371,39.94109192222423,-0.1747613863718432,19.883165267926195,16.714530423333333,10.64068205,6.073848373333331,2.464517878477113,1.412970332273232,mp-1029763,1029763
1007,CdSe,2.22783558,-0.7102118811718752,0.0002648,0,0,58.89142995653694,58.89142995653695,26.34701444600324,26.223165467980163,26.2850899569917,157.1722217616333,111.62594379799084,45.54627796364244,2.847231474929164,1.412970332273232,mp-1055,1055
1008,ZrGaAu,5.1154288,-0.598228719166667,1.31e-05,0,0,127.23808634547858,121.81927386597528,62.5831135866382,61.1125414070511,61.847827496844644,157.1722217616333,111.62594379799084,45.54627796364244,2.847231474929164,1.412970332273232,mp-12951,12951
1009,TiCdHg2,3.86240757,0.054829849166666556,0.902975,1,1,72.70547826760156,72.68660221205738,31.02337530846169,25.871780587970157,28.447577948215923,157.1722217616333,111.62594379799084,45.54627796364244,2.847231474929164,1.412970332273232,mp-11300,11300
1010,Ge,4.59159383,0.021746892500000392,2.025e-06,0,0,58.96116483312057,58.94727243792906,46.749907728646875,44.881649863583625,45.815778796115254,157.1722217616333,111.62594379799084,45.54627796364244,2.847231474929164,1.412970332273232,mp-1007760,1007760