,formula_pretty,efermi,formation_energy_per_atom,total_magnetization_normalized_formula_units,num_magnetic_sites,num_unique_magnetic_sites,k_voigt,k_reuss,g_voigt,g_reuss,g_vrh,e_total,e_ionic,e_electronic,n,e_ij_max,material_id,b
2784,Mg2As2O7,1.61185265,-2.283722423181817,0.0003525,0,0,107.21616650311091,101.75516381778023,50.090211547769144,46.36710688852978,48.22865921814946,157.1722217616333,111.62594379799084,45.54627796364244,2.847231474929164,1.412970332273232,mp-5618,5618
2785,ZrTi2O,6.01339156,-1.4765478904166658,0.00043105,0,0,134.53216940807522,132.5480580071282,73.00974568962428,69.25281663170395,71.13128116066412,157.1722217616333,111.62594379799084,45.54627796364244,2.847231474929164,1.412970332273232,mp-752953,752953
2786,MnGePd2,6.38607598,-0.3247248807327594,4.0919047,1,1,135.71941253012986,135.7194125301302,31.058480672802876,5.6822442648759655,18.37036246883942,157.1722217616333,111.62594379799084,45.54627796364244,2.847231474929164,1.412970332273232,mp-505781,505781
2787,P3N5,7.41190459,-0.4240624456250002,2.03e-05,0,0,154.21544750596928,108.1436614280373,130.86160995550526,94.81182176614158,112.83671586082342,10.056034046666667,4.901766936666667,5.15426711,2.270301105580491,0.8077681136316289,mp-1954,1954
2788,Nb5SiSn2,7.50288486,-0.3312391418749998,0.0055013,0,0,162.31256953113578,162.3047329817772,84.4480678763507,81.71748121280443,83.08277454457757,157.1722217616333,111.62594379799084,45.54627796364244,2.847231474929164,1.412970332273232,mp-7557,7557
2789,SrZnSi,3.66077743,-0.412690582222222,0.0013023,0,0,50.72298188782316,47.72263104760154,40.113392414797694,37.305395535560294,38.709393975179,157.1722217616333,111.62594379799084,45.54627796364244,2.847231474929164,1.412970332273232,mp-9556,9556
2790,Sr(CdSb)2,3.65520341,-0.5831727413333336,0.0004511,0,0,37.22001757694495,36.71989342983423,19.427314226132506,18.291633348961728,18.859473787547117,157.1722217616333,111.62594379799084,45.54627796364244,2.847231474929164,1.412970332273232,mp-7432,7432
2791,TiGePd,6.61092162,-0.6851471483333332,4.296666666666666e-05,0,0,148.71709753533077,148.1900810380413,62.43844891460128,56.35492608675304,59.39668750067716,157.1722217616333,111.62594379799084,45.54627796364244,2.847231474929164,1.412970332273232,mp-16740,16740
2792,CoSe2,5.80754569,-0.6122043065625006,0.56297,2,1,106.02891462408047,106.02158338914015,56.00444351110723,54.8186149542143,55.41152923266077,157.1722217616333,111.62594379799084,45.54627796364244,2.847231474929164,1.412970332273232,mp-20862,20862
2793,Be2NiRh,6.58383362,-0.5919035324999999,0.000649,0,0,193.6433632448576,193.64336324485754,107.38527169637452,107.33511037358645,107.36019103498049,157.1722217616333,111.62594379799084,45.54627796364244,2.847231474929164,1.412970332273232,mp-864895,864895
2794,V3O5,4.81742919,-2.5180412296874994,4.999996625,12,6,185.17155614518046,184.53648591507454,86.40999782870026,82.70113204553866,84.55556493711946,157.1722217616333,111.62594379799084,45.54627796364244,2.847231474929164,1.412970332273232,mp-622497,622497
2795,Cu2PdAu,5.1423223,-0.11528450750000019,1.1e-06,0,0,141.1402822441246,141.1402822441246,43.28341328758233,-75.39676746518886,-16.056677088803266,157.1722217616333,111.62594379799084,45.54627796364244,2.847231474929164,1.412970332273232,mp-862256,862256
2796,ErF3,-0.94615878,-4.471652089375,3e-07,0,0,90.26234986123501,54.2199740705394,53.34259599374062,34.98607554931397,44.1643357715273,157.1722217616333,111.62594379799084,45.54627796364244,2.847231474929164,1.412970332273232,mp-9371,9371
2797,AuSe,1.75157638,-0.3368671136718753,5e-07,0,0,15.439006635898819,3.2936765116800597,8.53551050218589,2.6174471034730624,5.576478802829476,11.29064582,0.5301949833333333,10.760450836666669,3.2803126126432933,1.412970332273232,mp-2793,2793
2798,Ni3Au,6.71330784,0.1046972600000009,1.64289045,6,1,173.43735426998376,173.35881119371538,47.87035190883494,44.26665473284049,46.06850332083772,157.1722217616333,111.62594379799084,45.54627796364244,2.847231474929164,1.412970332273232,mp-976838,976838
2799,GaI3,-0.37045574,-0.7841287225000002,0.000618875,0,0,1.0115244239362287,0.7267030083080663,0.9894856962617126,0.8162633722283681,0.9028745342450404,157.1722217616333,111.62594379799084,45.54627796364244,2.847231474929164,1.412970332273232,mp-30954,30954
2800,YbF3,-2.11683385,-3.415887846875,1.001976375,12,2,83.64769981072212,82.80038610956618,8.128937645238196,228.88931065026654,118.50912414775237,157.1722217616333,111.62594379799084,45.54627796364244,2.847231474929164,1.412970332273232,mp-22072,22072
2801,CuI,4.22182376,-0.34307306000000004,0.0005809833333333334,0,0,15.274960430144809,5.209093212394654,8.358067721621548,1.6002795607344156,4.979173641177982,7.843434742560365,2.410695455893698,5.432739286666668,2.3308237356494095,0.019053697338519304,mp-570136,570136
2802,Cs2PbO3,1.79438861,-1.540855651810345,0.00040515,0,0,35.08982722976079,34.350694381919524,15.620816261685663,7.883839285310792,11.752327773498227,82.47486031000001,78.00028645333335,4.474573856666667,2.115318854609552,0.9518272030153374,mp-21521,21521
2803,LiBr,-1.62961997,-1.8359013554166665,0.0001425,0,0,17.736667592420613,17.667751497482676,8.114444216853972,7.8235968340826,7.969020525468286,4.830527599994759,2.1008650266614257,2.7296625733333335,1.6521690510759888,0.29476797027493334,mp-976280,976280
2804,Ti3Sn,7.50596673,-0.2615134687499996,0.0036147,0,0,114.30966625588313,114.30966625588316,56.23285247866681,25.420610228067808,40.82673135336731,157.1722217616333,111.62594379799084,45.54627796364244,2.847231474929164,1.412970332273232,mp-570691,570691
2805,FeBiO3,5.3289365,-1.6628060699999998,0.0,4,1,162.20358151363493,162.13126384789294,70.91464979525782,69.24322231134472,70.07893605330128,157.1722217616333,111.62594379799084,45.54627796364244,2.847231474929164,1.412970332273232,mp-645159,645159
2806,NiPd3,5.2401661,0.06770055249999984,1.60121035,8,2,173.11358330093591,172.58474785350828,45.992731671075724,34.17426936736292,40.08350051921932,157.1722217616333,111.62594379799084,45.54627796364244,2.847231474929164,1.412970332273232,mp-973983,973983
2807,LaBr3,1.81661217,-2.4230521156250004,1.48e-05,0,0,27.61064558036053,23.596407564734218,14.251582704324615,11.981650316975632,13.116616510650124,10.692589850314766,6.278995863671143,4.413593986643622,2.100855536833416,1.412970332273232,mp-23263,23263
2808,SiCl4,-2.63413313,-1.7420281965000002,0.000732875,0,0,0.9241853649434358,1.111352800534027,0.35235843214662543,-0.2954313866117032,0.028463522767461114,2.4014490599999996,0.29163418999999996,2.1098148699999997,1.4525201788615536,1.412970332273232,mp-28391,28391
2809,V2MoO8,-0.11265449,-2.126873647272727,3.56e-05,0,0,103.33845860338725,20.810297800791606,44.246410729602836,21.61456462003907,32.93048767482095,46.13384137666666,40.336122366666665,5.797719009999999,2.407845304416378,1.9532236417266708,mp-546989,546989
2810,CaAl2(SiO4)2,1.67448896,-3.4243263628846154,7.5e-08,0,0,85.84394033014428,80.93539535641662,43.53107001806344,38.343338468847186,40.93720424345531,157.1722217616333,111.62594379799084,45.54627796364244,2.847231474929164,1.412970332273232,mp-758658,758658
2811,Mg(BeAs)2,5.03093881,-0.3221030299999995,0.0002115,0,0,76.32949917336211,76.07723780297849,49.04445138961926,41.66636745021365,45.355409419916455,19.73860776127285,8.930713983709223,10.80789377756363,3.287536125666702,1.412970332273232,mp-865185,865185
2812,Al2Te3,2.9594855,-0.70450076125,0.0,0,0,9.10921050792425,2.3516457560383883,7.053185642527368,1.6843068349400883,4.368746238733729,157.1722217616333,111.62594379799084,45.54627796364244,2.847231474929164,1.412970332273232,mp-29502,29502
2813,NaTiS2,5.09071459,-1.5805177415337655,0.9791568,1,1,52.65653575745609,51.175773285257534,32.31438647977533,29.081384622700497,30.697885551237913,157.1722217616333,111.62594379799084,45.54627796364244,2.847231474929164,1.412970332273232,mp-754850,754850
2814,TiSe,7.26514295,-1.323210567838542,5.09e-05,0,0,114.24946197134012,109.22093938580312,80.32998828897152,61.449696734254005,70.88984251161276,157.1722217616333,111.62594379799084,45.54627796364244,2.847231474929164,1.412970332273232,mp-568789,568789
2815,CoP3,8.32784956,-0.49735799124999946,0.007753675,0,0,148.90319263904462,148.90319263904462,114.6865932081869,114.36949981490486,114.52804651154588,157.1722217616333,111.62594379799084,45.54627796364244,2.847231474929164,1.412970332273232,mp-1944,1944
2816,CdWO4,1.26578932,-1.9920295575000004,0.0001134,0,0,120.28057055880468,116.26860370006207,44.066019537414334,38.362508656817155,41.214264097115745,15.136969763333328,10.310212209999998,4.826757553333331,2.1969882915785717,1.412970332273232,mp-19387,19387
2817,VO2,4.34675396,-2.4802756983333345,1.00006725,2,1,233.87774658181218,232.23720184594615,129.27124363738622,108.149362225454,118.7103029314201,128.39060550189444,118.30255667411647,10.088048827777977,3.1761688915701534,1.412970332273232,mp-19094,19094
2818,TiOF,5.1267898,-3.4235407386111127,1.00031375,4,1,136.03057435790018,133.65672274899993,59.38777212716944,53.76934750969564,56.57855981843254,157.1722217616333,111.62594379799084,45.54627796364244,2.847231474929164,1.412970332273232,mp-753708,753708
2819,Na5Co2S5,2.57618604,-0.9504516815319685,0.3450986,2,1,33.94628693555272,33.675082790128386,14.886642610422737,12.299298056227718,13.592970333325226,157.1722217616333,111.62594379799084,45.54627796364244,2.847231474929164,1.412970332273232,mp-29308,29308
2820,Hf2Al3C4,7.89316152,-0.4933793794444436,0.0025127,0,0,197.85973219632737,195.56424494844964,156.9672914030513,155.93287851577634,156.4500849594138,157.1722217616333,111.62594379799084,45.54627796364244,2.847231474929164,1.412970332273232,mp-570784,570784
2821,HfCu3,6.23213984,-0.08826500750000044,0.0008332,0,0,133.04013221890958,133.0401322189097,32.446074547482255,12.742305039874006,22.59418979367813,157.1722217616333,111.62594379799084,45.54627796364244,2.847231474929164,1.412970332273232,mp-865176,865176
2822,BaZnPb,3.34298891,-0.4109343816666667,0.00165395,0,0,30.545440729802003,28.583791338154036,20.50352782487406,19.016487875637843,19.760007850255953,157.1722217616333,111.62594379799084,45.54627796364244,2.847231474929164,1.412970332273232,mp-510311,510311
2823,GePdS3,2.16332321,-0.6517969358750001,0.0013574,0,0,12.429050900958147,0.1876793307318422,7.990033583305097,0.5154026252988213,4.252718104301959,157.1722217616333,111.62594379799084,45.54627796364244,2.847231474929164,1.412970332273232,mp-541785,541785
2824,LuI3,-0.08117032,-1.5930283587500003,0.0005462,0,0,5.9824790152048095,0.7014564098996524,3.696954947300084,0.40735251113704457,2.0521537292185643,157.1722217616333,111.62594379799084,45.54627796364244,2.847231474929164,1.412970332273232,mp-865521,865521
2825,SiC,8.06774542,-0.20452768156249945,0.00020073125,0,0,213.59116507711548,213.58490570350284,189.12540083477307,184.65426795764154,186.8898343962073,157.1722217616333,111.62594379799084,45.54627796364244,2.847231474929164,1.412970332273232,mp-567551,567551
2826,LaGe2,7.33949393,-0.6890443350000002,0.0002277,0,0,65.06268360789096,64.82705491502922,21.829155618924627,18.998242136995014,20.41369887795982,157.1722217616333,111.62594379799084,45.54627796364244,2.847231474929164,1.412970332273232,mp-19761,19761
2827,P2O5,-0.04018997,-2.438859942380953,7.64e-05,0,0,52.944523920447494,26.368434405931776,28.809251614644673,14.315503599931757,21.562377607288216,4.8568456500026365,2.380118850002099,2.4767268000005376,1.573761989628844,0.32431019906638386,mp-2452,2452
2828,FeOF,2.07631505,-2.027985323333334,5.000407325,8,5,114.49623786526507,94.4542992730448,58.69597917928198,49.686650266764616,54.1913147230233,157.1722217616333,111.62594379799084,45.54627796364244,2.847231474929164,1.412970332273232,mp-755359,755359
2829,ZnS,1.90165189,-1.0621921010625002,0.00034418000000000003,0,0,69.64198276816393,69.64196320651685,34.24335818179671,33.275006334730506,33.75918225826361,9.293655825166859,3.381268744508414,5.912387080658444,2.4315400635519957,0.07440761475046194,mp-561258,561258
2830,CuSe2,4.84088821,-0.3938114407291664,0.000940875,0,0,64.81509124766465,64.81509124766467,26.487418635855512,25.708245592339708,26.09783211409761,157.1722217616333,111.62594379799084,45.54627796364244,2.847231474929164,1.412970332273232,mp-2280,2280
2831,Fe2B,6.65516448,-0.307497653055556,3.6924313,4,1,227.83296190195102,226.55505018662157,145.13504594021663,144.68238884481823,144.90871739251742,157.1722217616333,111.62594379799084,45.54627796364244,2.847231474929164,1.412970332273232,mp-1915,1915
2832,Sc2CCl2,2.33108536,-1.791306994,0.0003397,0,0,40.01273405492321,-0.7406637557569086,27.655661062050278,0.800817736881867,14.228239399466073,20.940507456660207,14.228664089993542,6.711843366666666,2.5907225568683856,1.412970332273232,mp-28479,28479
2833,VGeRu2,8.23716762,-0.3642350312499989,1.0268706,3,2,238.6087754653139,238.6087754653139,100.4424261109088,100.30720820224568,100.37481715657724,157.1722217616333,111.62594379799084,45.54627796364244,2.847231474929164,1.412970332273232,mp-865585,865585
2834,Ni3Au,6.94366024,0.09746679750000098,1.4223154,3,2,175.92548679735665,175.82959547089717,62.39160597897861,51.152074668476956,56.77184032372779,157.1722217616333,111.62594379799084,45.54627796364244,2.847231474929164,1.412970332273232,mp-976818,976818
2835,InP,4.68757835,-0.20579313666666632,0.0003057,0,0,59.46441796557682,59.46441796557683,33.13094787681425,29.432881768340255,31.28191482257725,17.254163756625605,3.2518943399589824,14.002269416666627,3.741960638043461,0.12573658352995498,mp-20351,20351
2836,MgCrO4,0.20254584,-2.190529001666667,0.0004671,0,0,68.01251959266358,60.26767265856979,42.321121798481876,40.47562036262453,41.398371080553204,8.007590896666668,4.384588083333335,3.623002813333334,1.9034187172908996,1.412970332273232,mp-19120,19120
2837,Sc2V2O7,2.74074668,-3.1226967486363644,1.9999273,3,4,141.26321688950253,136.61561551557492,53.096604103645454,48.50903822421459,50.80282116393002,157.1722217616333,111.62594379799084,45.54627796364244,2.847231474929164,1.412970332273232,mp-761285,761285
2838,CsCuCl3,0.89872646,-1.4401399055862067,0.00370195,0,0,15.248576260762231,14.212594117250632,5.127650431229191,-3.0766946427125617,1.0254778942583147,157.1722217616333,111.62594379799084,45.54627796364244,2.847231474929164,1.412970332273232,mp-675287,675287
2839,ZrCr2,5.48243432,-0.012337884166665702,0.033937325,2,2,179.46143109886668,179.33524751157336,55.082986146876905,50.56203348085403,52.822509813865466,157.1722217616333,111.62594379799084,45.54627796364244,2.847231474929164,1.412970332273232,mp-1919,1919
2840,CrCuO2,4.21489179,-1.7848196500000002,0.0,2,1,162.67690666317898,143.92628168943602,66.86441384686377,48.4313513575472,57.647882602205485,9.90479570332758,2.6566360499942476,7.248159653333333,2.692240638080729,1.412970332273232,mp-510625,510625
2841,Be2PtRh,6.99435583,-0.7654722399999994,0.0002477,0,0,216.00008362594085,216.00008362594082,117.11871588478861,109.9199604426628,113.5193381637257,157.1722217616333,111.62594379799084,45.54627796364244,2.847231474929164,1.412970332273232,mp-862600,862600
2842,BiSe,0.8913375,-0.2908022011718754,0.00011025,0,0,6.796708249255001,0.1509008151345281,5.565995225666829,-0.02247056451146165,2.7717623305776837,157.1722217616333,111.62594379799084,45.54627796364244,2.847231474929164,1.412970332273232,mp-570286,570286
2843,Be,4.36353095,0.0,2.95e-05,0,0,121.95177607806704,121.57410168717642,160.61463371507585,159.91581611763704,160.26522491635643,157.1722217616333,111.62594379799084,45.54627796364244,2.847231474929164,1.412970332273232,mp-87,87
2844,Sr2MgWO6,2.91384633,-2.979556286333333,3.4e-06,0,0,127.74679627449099,127.746796274491,81.84136599180898,81.60131709069492,81.72134154125195,157.1722217616333,111.62594379799084,45.54627796364244,2.847231474929164,1.412970332273232,mp-18848,18848
2845,Na2CN2,1.35050221,-0.6001180086206901,0.0001101,0,0,44.45686377339974,37.20313638105659,23.22821872370565,12.044294745195991,17.636256734450818,6.690689416669823,3.9853680500031565,2.7053213666666664,1.644786115781218,1.412970332273232,mp-541989,541989
2846,TiZnNi2,6.63395292,-0.40189296333333324,0.0011911,0,0,169.00740014084982,169.00740014084968,62.06639354909187,37.78820951374008,49.92730153141598,157.1722217616333,111.62594379799084,45.54627796364244,2.847231474929164,1.412970332273232,mp-865093,865093
2847,MoSe2,3.8297572,-0.9875377082291669,2.825e-05,0,0,37.82877754922285,-2.6196471441964557,27.28927362815914,1.3831068388118257,14.336190233485484,11.7328493604818,1.0728375154726926,10.660011845009107,3.264967357418617,1.412970332273232,mp-1634,1634
2848,LiHg2Pd,3.16042105,-0.316886138333333,0.0054772,0,0,69.72363564139131,69.72363564139134,23.1597116931772,4.963503782897185,14.061607738037193,157.1722217616333,111.62594379799084,45.54627796364244,2.847231474929164,1.412970332273232,mp-861896,861896
2849,K2PdCl6,-0.55714191,-1.5522497251111105,0.0020946,0,0,11.929429624519507,11.929429624519507,6.714707292900417,6.64042384929865,6.677565571099533,9.848008476665996,6.277520609999338,3.570487866666658,1.889573461569213,1.412970332273232,mp-23067,23067
2850,KCoO2,1.5641627,-1.483284770750001,4.0001406,6,3,67.0174615373373,59.50505472361748,30.615902042345798,11.797821754956988,21.206861898651393,10.164096159999998,6.039329173333331,4.124766986666665,2.030952236431636,1.412970332273232,mp-20528,20528
2851,Mn(FeO2)2,4.18816085,-1.8361207039901493,5.00000085,14,3,157.98287464660248,157.98287464660257,62.46062780441307,55.43169181868201,58.946159811547545,157.1722217616333,111.62594379799084,45.54627796364244,2.847231474929164,1.412970332273232,mp-18750,18750
2852,MgScRh2,5.35290666,-0.8109357762499991,0.000142,0,0,128.3731864805458,128.37318648054577,58.167895916177734,57.913669231694875,58.040782573936305,157.1722217616333,111.62594379799084,45.54627796364244,2.847231474929164,1.412970332273232,mp-866069,866069
2853,RbCuF3,0.56870921,-2.3291064429999997,1.0011989,1,1,63.83020863263568,63.83020863263566,31.147495924652038,29.285482528186545,30.21648922641929,157.1722217616333,111.62594379799084,45.54627796364244,2.847231474929164,1.412970332273232,mp-554601,554601
2854,Bi2PdO4,4.9437706,-1.3249956314285711,0.00297125,0,0,40.40379763351619,36.18055830775282,31.471611092523904,17.576168298858107,24.523889695691004,157.1722217616333,111.62594379799084,45.54627796364244,2.847231474929164,1.412970332273232,mp-559264,559264
2855,HoCl3,-2.32078336,-2.6726078312499997,0.0020278,0,0,8.405828372322055,0.6105176455714596,5.051430741816648,0.24585937239339656,2.648645057105022,157.1722217616333,111.62594379799084,45.54627796364244,2.847231474929164,1.412970332273232,mp-864662,864662
2856,TiZnCo2,5.46345426,-0.3566755283333336,0.0016031,0,0,189.62898414922287,189.6289841492229,91.34824714238138,86.94024518646555,89.14424616442346,157.1722217616333,111.62594379799084,45.54627796364244,2.847231474929164,1.412970332273232,mp-865898,865898
2857,SiO2,1.6854827,-3.0257842258333336,6.8775e-05,0,0,52.173158823473386,32.49373968798851,44.86096873408625,28.943039563729926,36.90200414890809,4.7828567500000005,2.1904505133333334,2.592406236666667,1.6100951017460636,0.27143459654546737,mp-556788,556788
2858,CsSnI3,1.7185893,-1.180802021086207,0.000319825,0,0,9.856269059214348,9.629273792810755,5.280168824462362,4.866546119688848,5.073357472075605,26.4359869,21.729760906666666,4.706225993333333,2.169383781937473,1.412970332273232,mp-27381,27381
2859,LiMnPO4,2.7674255,-2.543128521013957,5.00033795,4,1,102.37601033774207,101.74972620139096,51.05784376644131,48.83297202729984,49.94540789687058,157.1722217616333,111.62594379799084,45.54627796364244,2.847231474929164,1.412970332273232,mp-859086,859086
2860,Na2FeO3,0.27883933,-1.5851425896839082,4.0055606,2,1,50.10566983937117,41.34300229977545,19.64960794788808,17.233854235425643,18.441731091656862,13.643241826666666,4.595767433333332,9.047474393333331,3.007901991976024,1.0529007526827963,mp-755627,755627