,formula_pretty,efermi,formation_energy_per_atom,total_magnetization_normalized_formula_units,num_magnetic_sites,num_unique_magnetic_sites,k_voigt,k_reuss,g_voigt,g_reuss,g_vrh,e_total,e_ionic,e_electronic,n,e_ij_max,material_id,b
156,Ni3Sn,9.22826323,-0.13642071874999928,0.0017813,0,0,163.34751621479705,163.3475162148073,54.318734540304945,-31.55133901993876,11.383697760183093,157.1722217616333,111.62594379799084,45.54627796364244,2.847231474929164,1.412970332273232,mp-11523,11523
157,GdAlO3,4.37351046,-3.6904500495000008,7.00150855,4,1,186.0157048099997,183.28183482342268,110.66337767491974,106.07525974549186,108.3693187102058,157.1722217616333,111.62594379799084,45.54627796364244,2.847231474929164,1.412970332273232,mp-5223,5223
158,Zr2Al3,5.79503639,-0.5213929790000001,0.00631345,0,0,107.90384415481579,107.89944890064815,69.97831789133632,67.75778376285123,68.86805082709378,157.1722217616333,111.62594379799084,45.54627796364244,2.847231474929164,1.412970332273232,mp-1482,1482
159,In2Au,6.74962065,-0.22870928333333337,0.0002478,0,0,51.98027585402628,51.980275854026274,18.12092511450952,17.237918790807495,17.679421952658508,157.1722217616333,111.62594379799084,45.54627796364244,2.847231474929164,1.412970332273232,mp-22154,22154
160,SiMo3,9.33351175,-0.3145133287499995,0.0020449,0,0,251.63335086282703,251.6333508628271,130.12242126911244,124.80763726023748,127.46502926467497,157.1722217616333,111.62594379799084,45.54627796364244,2.847231474929164,1.412970332273232,mp-1275,1275
161,MgHg5,2.31915772,-0.0263514525,3.19e-05,0,0,22.141553943773,20.29981666145348,1.2735361883825755,-39.53772752219985,-19.132095666908636,157.1722217616333,111.62594379799084,45.54627796364244,2.847231474929164,1.412970332273232,mp-972892,972892
162,ZrHg,4.31428055,-0.1697002525000002,0.031989,0,0,102.35845647004649,101.25313720510607,37.624369907458956,10.058603333348778,23.841486620403867,157.1722217616333,111.62594379799084,45.54627796364244,2.847231474929164,1.412970332273232,mp-2510,2510
163,Ni(SbO2)2,4.44874221,-1.6231249374999999,0.0,4,1,55.14692165645192,53.39036699261183,23.234196277110907,10.315752199920313,16.77497423851561,157.1722217616333,111.62594379799084,45.54627796364244,2.847231474929164,1.412970332273232,mp-21275,21275
164,Gd(PdO2)2,3.23085496,-1.969251390714286,6.585186,2,1,154.4074138166792,150.11147771639577,57.009354965523904,47.823865073185154,52.41661001935453,157.1722217616333,111.62594379799084,45.54627796364244,2.847231474929164,1.412970332273232,mp-20102,20102
165,MnO2,2.86173232,-1.7760848793103463,0.0,4,1,173.67990308401764,173.09819943631277,77.80872977138627,196.76703305071533,137.2878814110508,157.1722217616333,111.62594379799084,45.54627796364244,2.847231474929164,1.412970332273232,mp-510408,510408
166,MgI2,1.30327246,-1.3138168766666671,0.0007026,0,0,13.500286324061884,1.775432909517552,6.998130308174503,0.6916310162390674,3.8448806622067853,6.717243099989605,3.0439076566563545,3.6733354433332495,1.9165947519841666,1.412970332273232,mp-23205,23205
167,YCo3,4.51465198,-0.09614387041666698,0.15464226666666667,9,3,152.54036434579686,152.23725960038666,41.158770436005724,39.097031564424576,40.12790100021515,157.1722217616333,111.62594379799084,45.54627796364244,2.847231474929164,1.412970332273232,mp-2588,2588
168,InNi,7.72437644,-0.17475417999999956,0.00010776666666666667,0,0,103.14669718736138,103.1323884944135,51.02522715971311,49.04325275497467,50.034239957343885,157.1722217616333,111.62594379799084,45.54627796364244,2.847231474929164,1.412970332273232,mp-19876,19876
169,Sc2Co,4.47903798,-0.26081279666666646,0.0069484,0,0,86.79785566813987,86.69254625497491,20.851642042895627,3.7056041197065963,12.278623081301111,157.1722217616333,111.62594379799084,45.54627796364244,2.847231474929164,1.412970332273232,mp-30562,30562
170,Ag2S,1.89419027,-0.21692453381944432,0.00048905,0,0,32.889316796586705,17.255671632153966,10.349263745433628,6.8155554450429605,8.582409595238294,11.486981866666667,2.815419476666667,8.67156239,2.9447516686471205,1.412970332273232,mp-32884,32884
171,Y2MgGe2,3.97736614,-0.7942071506666665,0.00028895,0,0,71.89774709922267,71.72370566217953,57.13897062179534,52.708259662937714,54.92361514236653,157.1722217616333,111.62594379799084,45.54627796364244,2.847231474929164,1.412970332273232,mp-865747,865747
172,Si3Rh5,8.54240672,-0.7481805599999998,0.0006178,0,0,205.95849232607566,191.48767341205254,79.56074481394893,71.90968925744765,75.7352170356983,157.1722217616333,111.62594379799084,45.54627796364244,2.847231474929164,1.412970332273232,mp-21012,21012
173,FeB,7.3818199,-0.371555040833333,1.1311388,4,1,295.57362146780764,293.42240048313266,149.0638243724682,132.69242938229505,140.87812687738162,157.1722217616333,111.62594379799084,45.54627796364244,2.847231474929164,1.412970332273232,mp-20787,20787
174,Mn2CoSi,8.12336178,-0.3515341077155174,2.9957666,3,3,211.2632378650234,211.26323786502337,106.10958808222935,76.63386652472589,91.37172730347763,157.1722217616333,111.62594379799084,45.54627796364244,2.847231474929164,1.412970332273232,mp-13082,13082
175,LiZnAg2,2.62516113,-0.19376327416666683,0.0002739,0,0,63.32387103818961,63.32387103818975,28.870063800117695,9.50905647167359,19.189560135895643,157.1722217616333,111.62594379799084,45.54627796364244,2.847231474929164,1.412970332273232,mp-861625,861625
176,Ba2NdCu3O7,3.01453021,-2.155611319615384,0.0444215,0,0,112.00823233531281,105.25801058792706,55.17225180913304,52.46344945180736,53.8178506304702,157.1722217616333,111.62594379799084,45.54627796364244,2.847231474929164,1.412970332273232,mp-22719,22719
177,Zn2GeSe4,1.28646831,-0.7791670977678576,2.37e-05,0,0,34.020150131833354,33.68794594159256,22.536710098209074,19.40478487698401,20.97074748759654,10.777575949689721,3.1545177880960207,7.6230581615937005,2.760988620330352,0.05638427829902675,mp-35539,35539
178,HoTe2,6.87915608,-1.4036168033333336,5.04e-05,0,0,59.42849031553653,59.41931211987599,26.26417251427352,23.2383921599038,24.75128233708866,157.1722217616333,111.62594379799084,45.54627796364244,2.847231474929164,1.412970332273232,mp-1018732,1018732
179,BaGa2,2.4292018,-0.4633115416666662,0.0050836,0,0,35.59869207106223,34.866632470265806,24.318213491587564,23.950668896378776,24.13444119398317,157.1722217616333,111.62594379799084,45.54627796364244,2.847231474929164,1.412970332273232,mp-1219,1219
180,HfCo2Sn,7.77265151,-0.4063642037500008,1.9964484,2,1,163.78682452581572,163.78682452581572,79.5558223253301,75.55546312934078,77.55564272733544,157.1722217616333,111.62594379799084,45.54627796364244,2.847231474929164,1.412970332273232,mp-20730,20730
181,FeBO3,1.40204815,-2.167712458333334,3.5e-07,4,1,160.32955833580246,151.93508305985839,64.81796368883415,22.310340608009778,43.56415214842197,157.1722217616333,111.62594379799084,45.54627796364244,2.847231474929164,1.412970332273232,mp-849295,849295
182,Be12V,4.63755101,-0.10248673076923118,0.4690189,1,1,129.84157342852757,129.81880520296255,145.20793881873033,142.84407984701414,144.02600933287223,157.1722217616333,111.62594379799084,45.54627796364244,2.847231474929164,1.412970332273232,mp-571438,571438
183,AgF2,-1.1013139,-1.430758567222222,3.5e-06,0,0,35.64476953896863,27.582293862886953,16.654748910749717,5.225346661498387,10.940047786124051,157.1722217616333,111.62594379799084,45.54627796364244,2.847231474929164,1.412970332273232,mp-2284,2284
184,KClO4,-0.97002682,-1.08670223925,0.0006034,0,0,17.17336420037641,17.166843364350658,7.762495129401088,7.54392794930741,7.653211539354249,157.1722217616333,111.62594379799084,45.54627796364244,2.847231474929164,1.412970332273232,mp-23526,23526
185,Sc2AlC,4.4679563,-0.43955480749999953,0.00883505,0,0,86.24695231932185,86.20793379798745,57.011000235783534,53.425328954536546,55.21816459516004,157.1722217616333,111.62594379799084,45.54627796364244,2.847231474929164,1.412970332273232,mp-13070,13070
186,ScCu3,6.19226533,-0.15545358374999996,7.11e-05,0,0,104.64722174298043,104.64722174298065,23.28293255842852,-20.457333129709358,1.412799714359581,157.1722217616333,111.62594379799084,45.54627796364244,2.847231474929164,1.412970332273232,mp-973100,973100
187,ScPPt,8.0034886,-1.2416436044444434,3.75e-06,0,0,153.57500421035434,145.26017595263403,70.83134950910409,64.79388900982138,67.81261925946274,157.1722217616333,111.62594379799084,45.54627796364244,2.847231474929164,1.412970332273232,mp-12480,12480
188,Tl(CoS)2,6.07984197,-0.5565957959166667,1.8440188,2,1,58.75202875532732,52.28467391990433,27.522062510939733,20.893163458005194,24.207612984472462,157.1722217616333,111.62594379799084,45.54627796364244,2.847231474929164,1.412970332273232,mp-5501,5501
189,CsPbBr3,0.17027543,-1.6368928165862073,0.000327075,0,0,13.26054079152474,12.714902071756136,5.940205673672011,4.838222636790606,5.389214155231309,157.1722217616333,111.62594379799084,45.54627796364244,2.847231474929164,1.412970332273232,mp-567681,567681
190,CaAl4O7,2.63380647,-3.463972205833333,1.15e-06,0,0,114.58223343549828,114.15213448594405,49.63946638411472,43.02801092824186,46.33373865617829,9.021106443333332,6.2027161699999995,2.8183902733333333,1.6788062048173795,1.412970332273232,mp-4867,4867
191,Ti3Pt,6.52322759,-0.6466139600000007,0.0224715,0,0,166.4937822758696,166.49378227586956,58.44013904745479,57.13703527640823,57.78858716193151,157.1722217616333,111.62594379799084,45.54627796364244,2.847231474929164,1.412970332273232,mp-2339,2339
192,AlAu4,6.10231464,-0.21094242850000028,3.865e-05,0,0,126.6549577637101,126.65495776371016,18.65933964156472,12.830171281106155,15.744755461335437,157.1722217616333,111.62594379799084,45.54627796364244,2.847231474929164,1.412970332273232,mp-1490,1490
193,Sc2AgAu,4.81735475,-0.5567542666666663,0.0011548,0,0,92.66298631853597,92.66298631756844,32.32897678918021,19.098745506196597,25.713861147688405,157.1722217616333,111.62594379799084,45.54627796364244,2.847231474929164,1.412970332273232,mp-862703,862703
194,NaMgSb,3.3123485,-0.5730061305172415,0.00067545,0,0,26.917060542078943,26.90720053819606,16.351977315741486,14.624465780455195,15.488221548098341,18.10615803333333,8.606502916666663,9.499655116666666,3.082151053512249,1.412970332273232,mp-7090,7090
195,YHg2,3.64767749,-0.3988595355555556,0.3198582,0,0,66.51759697851315,62.251627168155345,29.68442431469977,28.473433150843142,29.078928732771455,157.1722217616333,111.62594379799084,45.54627796364244,2.847231474929164,1.412970332273232,mp-30725,30725
196,LiFeF4,-2.88421523,-2.826589559722222,4.9999798,2,1,39.711763140854664,36.77563189199362,28.220062214923686,21.500912747445923,24.860487481184805,157.1722217616333,111.62594379799084,45.54627796364244,2.847231474929164,1.412970332273232,mp-776264,776264
197,K2PdO2,2.16042024,-1.2972710952,8e-07,0,0,56.51629791293548,50.67836446935781,27.270419378373823,9.217374091468468,18.243896734921144,10.125044039985378,5.8397257999853815,4.285318239999998,2.0701010216895206,1.412970332273232,mp-540584,540584
198,CoSn2,9.69637149,-0.060167438333333344,0.0001172,0,0,101.20735276481875,101.14201700773786,56.441658627025035,52.86476821879607,54.653213422910554,157.1722217616333,111.62594379799084,45.54627796364244,2.847231474929164,1.412970332273232,mp-20155,20155
199,Ti2Cu,6.36036052,-0.11766371888888945,0.0001466,0,0,125.76377044640816,125.74622116802493,60.378738401354376,50.00945668310527,55.19409754222983,157.1722217616333,111.62594379799084,45.54627796364244,2.847231474929164,1.412970332273232,mp-742,742
200,Sr(AlSi)2,5.14132564,-0.26715044933333304,0.003291,0,0,59.49905035551001,58.59329801422876,39.58505364576474,37.10897194260932,38.34701279418703,157.1722217616333,111.62594379799084,45.54627796364244,2.847231474929164,1.412970332273232,mp-6931,6931
201,BaNiF4,-0.4678982,-3.385121325833333,2.55841225,2,1,62.131198320359594,56.107648799009404,28.360948710878894,25.553599280963347,26.95727399592112,24.571840266666666,22.073159999999998,2.4986802666666663,1.5807214386686437,1.69027,mp-555321,555321
202,AlCuS2,5.01165731,-1.0604500028125,3.83e-05,0,0,80.55610128552492,80.32406528120123,37.73146672218348,32.64255356396469,35.18701014307408,8.676691023322114,2.058566889988778,6.618124133333335,2.572571502083729,0.13033754553654453,mp-4979,4979
203,KNiF3,1.41033415,-2.6417304601,2.0003394,1,1,74.6759915796141,74.6759915796141,40.76999468478725,39.969806966619686,40.36990082570347,7.24250461,4.91154578,2.33095883,1.526747795151511,1.412970332273232,mp-560976,560976
204,ZnCoO2,3.66408606,-1.4349799256250009,8.525e-06,4,1,169.66420427997267,169.64430427363664,65.97930535477256,63.08873763435454,64.53402149456355,157.1722217616333,111.62594379799084,45.54627796364244,2.847231474929164,1.412970332273232,mp-754633,754633
205,MgSiO3,2.82021757,-3.2276653440000005,0.0004221,0,0,106.61271773943244,102.17172244978812,62.225382916341815,57.862747752445586,60.0440653343937,157.1722217616333,111.62594379799084,45.54627796364244,2.847231474929164,1.412970332273232,mp-603930,603930
206,NaCuTe,5.00931179,-0.6177414721839085,0.00029665,0,0,36.32391065170545,35.09952347187174,15.703362775353748,13.023449308172017,14.363406041762882,15.486974843333336,6.045571383333335,9.441403460000002,3.0726866843204177,1.412970332273232,mp-7434,7434
207,NbBr3O,-0.6350143,-1.8156046750000001,1.55e-06,0,0,10.380933418299552,4.974840137712571,5.614822034277849,2.213579759203299,3.9142008967405744,6.426169369999999,1.9584908933333331,4.4676784766666655,2.1136883584546386,0.009010000000000002,mp-606393,606393
208,Nb2Cd2O7,0.853906,-2.465474535454545,0.00022105,0,0,119.52229969986723,115.3914989736243,46.45647322588202,44.53589250762672,45.49618286675437,157.1722217616333,111.62594379799084,45.54627796364244,2.847231474929164,1.412970332273232,mp-560530,560530
209,RbPt2Se3,2.15799098,-0.8845526690885416,0.0002702,0,0,28.75505046035042,20.335765011876596,15.156764867065133,9.46876171842737,12.31276329274625,12.384662956666668,2.9671273866666668,9.417535570000002,3.0688003470411696,1.412970332273232,mp-14797,14797
210,LiGe2N3,2.75031781,-0.5093700038888885,5.63e-05,0,0,125.50244861484904,124.8214309960463,87.16924568960108,85.28983804833219,86.22954186896663,9.902055993333333,4.695960726666667,5.206095266666666,2.281686934412052,0.5269964127012631,mp-1020059,1020059
211,HfFe2,5.25069184,-0.34567171333333374,3.1935853,6,2,162.04295146438676,162.0429514643868,83.17176413322387,81.19275334152526,82.18225873737457,157.1722217616333,111.62594379799084,45.54627796364244,2.847231474929164,1.412970332273232,mp-333,333
212,Ti2AlMo,7.00879401,-0.3226945941666681,0.0017755,0,0,150.07871059344436,150.07871059344436,46.615388407564815,38.23038425986764,42.42288633371623,157.1722217616333,111.62594379799084,45.54627796364244,2.847231474929164,1.412970332273232,mp-861627,861627
213,TePd3,6.2578147,-0.22643491750000067,0.0001655,0,0,135.60487554054208,135.6048751355551,33.197795282714324,8.278674777872418,20.73823503029337,157.1722217616333,111.62594379799084,45.54627796364244,2.847231474929164,1.412970332273232,mp-979273,979273
214,MgSiO3,4.80188568,-3.1200038500000007,6.125e-05,0,0,193.45311744721602,188.3320725128749,124.57030160802667,111.2152687933743,117.89278520070049,157.1722217616333,111.62594379799084,45.54627796364244,2.847231474929164,1.412970332273232,mp-5924,5924
215,Ca(MnP)2,5.5515252,-0.6838432165057469,3.9330452,2,1,86.625021263914,86.5634751172969,53.10302666534929,45.38066012899872,49.24184339717401,157.1722217616333,111.62594379799084,45.54627796364244,2.847231474929164,1.412970332273232,mp-6953,6953
216,MnPt3,7.035802,-0.35382260698275836,4.1149618,1,1,217.2037946428863,217.20379464288632,94.60239322670128,88.60695446899307,91.60467384784718,157.1722217616333,111.62594379799084,45.54627796364244,2.847231474929164,1.412970332273232,mp-1180,1180
217,CrWN2,9.05768469,-0.46636371499999996,2.0840507,1,1,262.2849144108096,262.26792071848547,144.29189909859858,138.7693064838134,141.53060279120598,157.1722217616333,111.62594379799084,45.54627796364244,2.847231474929164,1.412970332273232,mp-15226,15226
218,Y(MnSn)6,8.22664235,-0.14204934263483765,12.8193852,7,2,110.12983485318276,110.1298346399538,72.78773405728514,69.78237736802676,71.28505571265595,157.1722217616333,111.62594379799084,45.54627796364244,2.847231474929164,1.412970332273232,mp-22260,22260
219,MnAu2,5.00846778,-0.11065940264367906,4.0083705,1,1,124.31197480250313,123.09031620022213,44.33223645825074,15.652585935558097,29.99241119690442,157.1722217616333,111.62594379799084,45.54627796364244,2.847231474929164,1.412970332273232,mp-11252,11252
220,MnS,3.85535764,-0.7233406855280169,4.8889331,1,1,56.06114916883958,56.061149168839634,16.97120289713569,12.975289115639377,14.973246006387534,157.1722217616333,111.62594379799084,45.54627796364244,2.847231474929164,1.412970332273232,mp-1783,1783
221,Ti2ZnN,6.14359617,-1.153330106666667,0.0064976,0,0,150.7224789011482,147.93051705049308,103.58501327957741,101.56805708116461,102.57653518037101,157.1722217616333,111.62594379799084,45.54627796364244,2.847231474929164,1.412970332273232,mp-1014227,1014227
222,Eu,1.73929551,0.045591330000000596,7.4208682,2,1,12.879788647726533,12.869715347848029,10.034283379814985,9.818945417755815,9.9266143987854,157.1722217616333,111.62594379799084,45.54627796364244,2.847231474929164,1.412970332273232,mp-21462,21462
223,BaLiP,2.49383809,-0.876838105555556,0.0,0,0,37.77613060796538,37.76055248313423,25.50036346991992,23.495773531779914,24.498068500849918,26.01294326326801,16.646795693268015,9.366147569999997,3.0604162412979052,0.5475481418426067,mp-10615,10615
224,FeAs,6.99688027,-0.20321564500000022,0.540205375,4,1,166.19727225859666,159.48121628990495,89.64020865994596,72.1994173806952,80.91981302032057,157.1722217616333,111.62594379799084,45.54627796364244,2.847231474929164,1.412970332273232,mp-427,427
225,Te2Pt,7.28746209,-0.6783594966666661,0.0002797,0,0,59.84077732221371,39.01892291337293,32.52237151858591,22.782523684592213,27.652447601589063,157.1722217616333,111.62594379799084,45.54627796364244,2.847231474929164,1.412970332273232,mp-399,399
226,FeSi2,9.74215987,-0.33699646666666777,0.0712592,1,1,185.12688439965348,180.15816106167918,124.7941038947931,122.6155676241897,123.7048357594914,157.1722217616333,111.62594379799084,45.54627796364244,2.847231474929164,1.412970332273232,mp-20738,20738
227,CoSi,9.63997474,-0.5803951925000002,0.001624175,0,0,210.50673450976055,210.50673450976052,116.14333204886366,115.99656977997752,116.06995091442059,157.1722217616333,111.62594379799084,45.54627796364244,2.847231474929164,1.412970332273232,mp-7577,7577
228,ZrC,5.77434079,-0.8049799150000005,1.09e-05,0,0,221.25196351284131,221.2519635128413,159.36864769246876,158.51484296578138,158.94174532912507,157.1722217616333,111.62594379799084,45.54627796364244,2.847231474929164,1.412970332273232,mp-2795,2795
229,FeCO3,4.42937617,-1.7901851929999992,0.00016865,2,2,116.93755970966997,105.5248172584458,23.402905954241888,-31.415601416713674,-4.006347731235893,157.1722217616333,111.62594379799084,45.54627796364244,2.847231474929164,1.412970332273232,mp-18969,18969
230,TePb,5.12181394,-0.5589509762499998,0.000611325,0,0,37.61035507655001,36.090202910434115,21.049722813671924,17.74007072922406,19.39489677144799,157.1722217616333,111.62594379799084,45.54627796364244,2.847231474929164,1.412970332273232,mp-685022,685022
231,BaO,1.72769767,-2.8236447624999994,0.0010415,0,0,68.35650846399855,68.35650846399855,37.7754086469633,37.717053436925106,37.7462310419442,70.37653824999985,66.11217573999987,4.264362509999988,2.0650332951310952,1.412970332273232,mp-1342,1342
232,ScInPt,6.92910048,-0.905873285,2.99e-05,0,0,113.92742679792602,104.79952456569909,39.13896518767933,35.23985801840527,37.1894116030423,157.1722217616333,111.62594379799084,45.54627796364244,2.847231474929164,1.412970332273232,mp-31297,31297
233,Ba(Si3N4)2,5.72482551,-1.3144629106666674,0.0002643,0,0,152.80489406734347,151.70665905945827,106.28041565432925,101.00917203022661,103.64479384227792,11.457967353333332,6.709471400000001,4.748495953333332,2.1791043924817672,0.8360267462826771,mp-567771,567771