,formula_pretty,efermi,formation_energy_per_atom,total_magnetization_normalized_formula_units,num_magnetic_sites,num_unique_magnetic_sites,k_voigt,k_reuss,g_voigt,g_reuss,g_vrh,e_total,e_ionic,e_electronic,n,e_ij_max,material_id,b
3558,V3CoO8,-0.83379398,-2.17550099625,2.0003599,2,4,6.837179751966683,6.119513332862363,12.038200109589758,10.070798796147601,11.05449945286868,157.1722217616333,111.62594379799084,45.54627796364244,2.847231474929164,1.412970332273232,mp-753738,753738
3559,TiSi2,9.01422882,-0.5065491911111112,1.495e-05,0,0,144.4162149119415,140.66849408172996,115.10662739516917,107.06848805564442,111.0875577254068,157.1722217616333,111.62594379799084,45.54627796364244,2.847231474929164,1.412970332273232,mp-2582,2582
3560,CuSe,4.06416681,-0.35862840533854207,0.0015767,0,0,66.11711978252964,64.60364028329887,18.81987919016527,10.046182955959647,14.433031073062459,157.1722217616333,111.62594379799084,45.54627796364244,2.847231474929164,1.412970332273232,mp-488,488
3561,Mn,6.74529483,0.08309805206896392,0.0189602,0,0,279.68794541755204,279.687945417552,138.5889486084955,122.73911037334133,130.66402949091844,157.1722217616333,111.62594379799084,45.54627796364244,2.847231474929164,1.412970332273232,mp-8634,8634
3562,Cu2GeSe3,3.87889379,-0.4763118670052086,7.415e-05,0,0,59.64240908241848,59.60560821532706,28.09040208188092,24.255317961296324,26.172860021588622,157.1722217616333,111.62594379799084,45.54627796364244,2.847231474929164,1.412970332273232,mp-677105,677105
3563,InCuPt2,7.73251254,-0.35420300499999957,2.98e-05,0,0,172.11626153682096,172.11581666042437,63.952866452845576,57.65366093578853,60.80326369431705,157.1722217616333,111.62594379799084,45.54627796364244,2.847231474929164,1.412970332273232,mp-639659,639659
3564,Hf3SnO8,3.06726196,-3.51573638625,0.0009917,0,0,183.91626976906906,178.9158944332253,81.20604940170273,73.57788231895562,77.39196586032918,19.86068050333333,15.236432446666667,4.624248056666667,2.1504064863803465,0.48319191610937673,mp-761842,761842
3565,Sn(PbO2)2,4.07626557,-1.779286491428571,0.000263175,0,0,47.40690958558645,45.046886769953694,22.502611832628666,11.349828030932606,16.926219931780636,157.1722217616333,111.62594379799084,45.54627796364244,2.847231474929164,1.412970332273232,mp-22467,22467
3566,CaZn,2.28696138,-0.2458217399999998,0.0011821,0,0,32.77149114772626,31.748767168341057,14.978191231319256,11.701392578405581,13.33979190486242,157.1722217616333,111.62594379799084,45.54627796364244,2.847231474929164,1.412970332273232,mp-30483,30483
3567,ZrPRu,7.88086216,-1.1220211002777785,3.01e-05,0,0,207.6561370172936,207.37874652413046,108.6243130711709,106.5154913335392,107.56990220235505,157.1722217616333,111.62594379799084,45.54627796364244,2.847231474929164,1.412970332273232,mp-22268,22268
3568,KPF6,-2.35807651,-3.092881122666667,0.0005628,0,0,18.050559538544043,18.03753372941197,8.298806503686347,6.182707048083455,7.2407567758849005,6.138766663326546,4.279598229993213,1.8591684333333331,1.363513268484518,1.412970332273232,mp-4608,4608
3569,Al5Rh2,8.05435312,-0.7410118889285714,7.3725e-05,0,0,131.20659684578555,130.89188307450922,77.06857235024023,76.21349857655609,76.64103546339817,157.1722217616333,111.62594379799084,45.54627796364244,2.847231474929164,1.412970332273232,mp-1791,1791
3570,Li7Sn2,2.84767617,-0.37388265648148156,0.0006553,0,0,27.67138830604362,27.5748095139739,27.423271892987707,21.595831935456523,24.509551914222115,157.1722217616333,111.62594379799084,45.54627796364244,2.847231474929164,1.412970332273232,mp-30767,30767
3571,CaTiF6,-4.01312762,-3.9734046210416665,0.0,0,0,58.377072638997205,58.37707263899721,33.44670831631516,15.242916497570832,24.344812406942996,6.383889179944816,4.2509339375211,2.1329552424237157,1.460464050370195,1.412970332273232,mp-27315,27315
3572,NbCrO4,3.11892678,-2.729159823749999,9.3e-06,4,1,206.44601050100522,197.27101869048934,114.9183556681641,83.7925883650128,99.35547201658845,157.1722217616333,111.62594379799084,45.54627796364244,2.847231474929164,1.412970332273232,mp-675580,675580
3573,RbAgO,0.17168123,-1.003153564722222,2.025e-05,0,0,24.300133406869108,24.290947668803845,10.891559487067118,9.732693856509234,10.312126671788176,6.706289506666668,3.078845503333334,3.627444003333334,1.9045849950404772,1.412970332273232,mp-8603,8603
3574,CoMoP,9.74567529,-0.615223426944444,0.000515075,0,0,258.2414443900787,257.50788290315853,123.73622667740554,120.51017286625317,122.12319977182935,157.1722217616333,111.62594379799084,45.54627796364244,2.847231474929164,1.412970332273232,mp-22262,22262
3575,TiO2,-1.70763077,-3.452512084444444,1.01e-05,0,0,14.450813140479271,13.614286720513988,14.503842023736867,13.006537690685063,13.755189857210965,8.70368813333431,4.882143940000977,3.8215441933333327,1.9548770276754834,0.09819323367194104,mp-553432,553432
3576,Ba(PPd)2,4.55698972,-0.7978344593333333,0.0001039,0,0,62.04821754828755,59.57745609145273,33.00805328136524,28.985267540543592,30.99666041095442,157.1722217616333,111.62594379799084,45.54627796364244,2.847231474929164,1.412970332273232,mp-8236,8236
3577,Bi2SeO2,6.47696921,-0.41316914446874975,0.0001304,0,0,94.03397625312545,82.9184171104701,25.9820341442906,14.548505725599943,20.265269934945273,157.1722217616333,111.62594379799084,45.54627796364244,2.847231474929164,1.412970332273232,mp-552265,552265
3578,ZrSiO4,2.96466511,-3.558760005,8.35e-05,0,0,206.95792986352566,200.04111946759932,104.29670271480167,87.15820406004275,95.7274533874222,12.99064864666667,8.781597883333335,4.209050763333335,2.0515971250061096,1.412970332273232,mp-4820,4820
3579,ZrBr,4.2992641,-1.2709727537499997,0.00033175,0,0,31.902977609469424,5.7005704057825755,11.322219510104013,0.0224966614559894,5.672358085780001,157.1722217616333,111.62594379799084,45.54627796364244,2.847231474929164,1.412970332273232,mp-504594,504594
3580,LiCuF2,1.47116432,-2.256575459583333,0.0005286,0,0,63.24707096653421,46.36899782749264,29.841511724632003,20.385903772409165,25.113707748520582,157.1722217616333,111.62594379799084,45.54627796364244,2.847231474929164,1.412970332273232,mp-753098,753098
3581,Ti2O3,7.02508314,-3.3034396343333325,0.0034219,0,0,215.85964203396918,215.56496661143893,87.49485022275393,86.82633929002657,87.16059475639025,157.1722217616333,111.62594379799084,45.54627796364244,2.847231474929164,1.412970332273232,mp-458,458
3582,Ga4GeO8,2.16868067,-2.2323623973076914,0.0022123,0,0,159.44486001834053,144.65244550805855,75.97655512124301,68.435352889246,72.20595400524451,11.311588490000004,7.350176983333335,3.9614115066666677,1.9903294970096452,1.412970332273232,mp-29455,29455
3583,Rh2O3,5.27646049,-1.0714212435000008,2.75e-07,0,0,233.2972931576404,232.1283825184058,105.55869356776488,102.20687768371533,103.8827856257401,157.1722217616333,111.62594379799084,45.54627796364244,2.847231474929164,1.412970332273232,mp-1716,1716
3584,MoN,9.87210679,-0.146554652499999,0.0010428,0,0,325.657598544938,325.6575985449381,53.135810519066254,-99.11665289986998,-22.99042119040186,157.1722217616333,111.62594379799084,45.54627796364244,2.847231474929164,1.412970332273232,mp-16730,16730
3585,ScAl3,6.85653516,-0.4549311287499993,0.0001865,0,0,84.29253598324641,84.2925359832464,70.52083132215363,70.51641717190768,70.51862424703066,157.1722217616333,111.62594379799084,45.54627796364244,2.847231474929164,1.412970332273232,mp-2121,2121
3586,AlCrO4,3.52196705,-2.385538456666667,0.9999754,5,3,190.3638273082329,186.78687796186932,114.94162368271658,92.92885806160773,103.93524087216215,157.1722217616333,111.62594379799084,45.54627796364244,2.847231474929164,1.412970332273232,mp-753658,753658
3587,Bi2Pd,6.22864895,-0.23968416166666687,0.00037255,0,0,55.73821527583367,54.430519913760556,19.883614647826164,18.048901783570216,18.96625821569819,157.1722217616333,111.62594379799084,45.54627796364244,2.847231474929164,1.412970332273232,mp-568746,568746
3588,NaNbO3,1.64400349,-2.8178028373103445,9.6e-06,0,0,137.60645307368512,127.87965127631274,105.39705610293898,93.05806771184366,99.22756190739132,19.379293266666668,12.304279093333335,7.075014173333336,2.65988987992611,1.412970332273232,mp-4419,4419
3589,CrN,7.77696349,-0.6433186237499999,7.35e-06,4,1,180.75480299149214,180.7548029914921,87.72328635273736,87.23275029718027,87.47801832495881,157.1722217616333,111.62594379799084,45.54627796364244,2.847231474929164,1.412970332273232,mp-2132,2132
3590,C,6.55387975,0.7636557350000004,1.255e-05,0,0,311.2304268356828,311.2304268356828,231.74773812261614,208.5863033154947,220.16702071905542,157.1722217616333,111.62594379799084,45.54627796364244,2.847231474929164,1.412970332273232,mp-570002,570002
3591,LiVF4,-0.69478493,-3.185336401388889,2.0005406,2,1,51.57347632341249,44.24589371828089,23.226428371366,16.045223908614293,19.635826139990147,157.1722217616333,111.62594379799084,45.54627796364244,2.847231474929164,1.412970332273232,mp-754755,754755
3592,MnO,4.60748637,-1.979201203965518,0.0,2,1,142.77704951117738,142.77704951117735,66.3245354726949,63.404815177903124,64.86467532529902,18.22616040926385,13.332912728035263,4.893247681228587,2.2120686429739442,1.412970332273232,mp-19006,19006
3593,Zn(InTe2)2,3.73687029,-0.6166465085714284,0.0018692,0,0,23.58915539557873,23.573839879171643,15.523091024862623,13.52908507509441,14.526088049978515,13.464813146666666,3.3467444500000005,10.118068696666668,3.180891179632945,0.10317566694720229,mp-20832,20832
3594,ZrAs2,6.1870033,-0.8382067308333335,7.68e-05,0,0,110.01417275706457,109.96702617619408,71.6632589545714,69.60223348808506,70.63274622132823,157.1722217616333,111.62594379799084,45.54627796364244,2.847231474929164,1.412970332273232,mp-27606,27606
3595,LiVF4,-0.79983004,-3.1617540538888895,2.00010915,2,1,63.52048299004722,51.55064689374583,35.36032455920075,27.09884948103925,31.22958702012,157.1722217616333,111.62594379799084,45.54627796364244,2.847231474929164,1.412970332273232,mp-754721,754721
3596,LiMnPt2,5.30786313,-0.4802949028160928,4.1233906,3,2,113.67623799657858,113.6762379965785,58.97319972125625,38.15849618855965,48.56584795490795,157.1722217616333,111.62594379799084,45.54627796364244,2.847231474929164,1.412970332273232,mp-861658,861658
3597,LiCoO2,3.98131748,-1.7519253445833334,9.6e-06,0,0,119.31002692393476,115.9014173340819,55.39224652919152,-5.48336578640413,24.954440371393694,157.1722217616333,111.62594379799084,45.54627796364244,2.847231474929164,1.412970332273232,mp-22526,22526
3598,NiSnO3,5.21969984,-1.7255442970000003,4.25e-07,4,1,157.60902703298007,154.02052736835674,73.82849223116152,72.95227007722377,73.39038115419265,157.1722217616333,111.62594379799084,45.54627796364244,2.847231474929164,1.412970332273232,mp-754654,754654
3599,BaHfO3,2.43655296,-3.7867155090000013,0.0007432,0,0,159.02154431001915,159.02154431001915,103.1454545645163,102.09209318925022,102.61877387688327,40.69819862715875,36.04941951715642,4.648779110002324,2.1561027596110356,1.412970332273232,mp-998552,998552
3600,LiMgN,2.97936828,-0.7582859161111113,0.0008012,0,0,98.349400579233,98.34940057923299,87.28820823198372,79.8519148817108,83.57006155684726,10.712393516634437,5.595501333301139,5.1168921833333,2.2620548586038534,0.4586588016603268,mp-37906,37906
3601,NbSb2,7.91779994,-0.3984885149999992,0.001067,0,0,97.82066265662553,96.12464057171299,71.83661551238102,66.7328739929185,69.28474475264976,157.1722217616333,111.62594379799084,45.54627796364244,2.847231474929164,1.412970332273232,mp-1969,1969
3602,ZrP,6.54539458,-1.3311096916666667,7.12e-05,0,0,134.387469059809,134.387469059809,85.85344427819606,65.62633058126312,75.73988742972959,157.1722217616333,111.62594379799084,45.54627796364244,2.847231474929164,1.412970332273232,mp-930,930
3603,HfSnRu2,8.99139144,-0.6384050487500001,0.0001116,0,0,202.26465471212623,202.26465471212623,108.64758748557959,108.59258606308043,108.62008677433002,157.1722217616333,111.62594379799084,45.54627796364244,2.847231474929164,1.412970332273232,mp-866219,866219
3604,SrSc2O4,2.74336461,-3.738229661309524,0.000176975,0,0,141.14427461835385,139.72212702297006,81.66954951619795,80.24506903505046,80.9573092756242,157.1722217616333,111.62594379799084,45.54627796364244,2.847231474929164,1.412970332273232,mp-770771,770771
3605,NaCdO2,0.76093729,-1.3072464916379305,0.9998784,2,1,72.58940221937661,70.382218068085,30.757090166677724,28.675914305585934,29.71650223613183,157.1722217616333,111.62594379799084,45.54627796364244,2.847231474929164,1.412970332273232,mp-754567,754567
3606,LiCuS,2.68910217,-0.8853573529861111,2.265e-05,0,0,26.951835461678375,24.08902944428354,17.375550828385073,14.908168058122172,16.141859443253622,157.1722217616333,111.62594379799084,45.54627796364244,2.847231474929164,1.412970332273232,mp-753605,753605
3607,VCo2Ge,6.74955103,-0.24526192375000022,3.0198997,3,2,200.37217853786854,200.37217853786862,85.06182511235414,62.70051421627864,73.88116966431639,157.1722217616333,111.62594379799084,45.54627796364244,2.847231474929164,1.412970332273232,mp-865465,865465
3608,Li8ZrO6,0.51468671,-2.4628493971111114,5.86e-05,0,0,94.36888528636268,94.31856204001306,67.07299709946635,60.74386023074974,63.90842866510805,157.1722217616333,111.62594379799084,45.54627796364244,2.847231474929164,1.412970332273232,mp-755225,755225
3609,Zr2Au,4.90810814,-0.41615239666666665,0.0002614,0,0,119.53992397543902,119.53441371851598,49.07183078746423,41.03224680233751,45.05203879490087,157.1722217616333,111.62594379799084,45.54627796364244,2.847231474929164,1.412970332273232,mp-2348,2348
3610,Nb6Co7,5.36689819,-0.16360463038461476,1.1222784,1,2,213.2212707246812,213.03406806407247,96.43356868161204,93.05105491229223,94.74231179695214,157.1722217616333,111.62594379799084,45.54627796364244,2.847231474929164,1.412970332273232,mp-7250,7250
3611,Sr2NbN3,2.41507702,-1.2229387718055555,0.000652225,0,0,72.3969144307764,70.26655659732535,38.679797907629876,36.326633645471844,37.50321577655086,15.5458632,9.442276446666666,6.103586753333333,2.470543817327135,1.412970332273232,mp-17701,17701
3612,BaCuO2,3.25747814,-1.8800585724999994,2.5e-08,4,2,90.03777178637834,85.90476270930786,38.31398529382933,-10.276342256869912,14.018821518479712,157.1722217616333,111.62594379799084,45.54627796364244,2.847231474929164,1.412970332273232,mp-755472,755472
3613,TiBe2,4.72771321,-0.19378267611111136,1.1153321,2,1,123.62027857457747,123.62027857457747,107.12295642163217,105.84975250484676,106.48635446323946,157.1722217616333,111.62594379799084,45.54627796364244,2.847231474929164,1.412970332273232,mp-2749,2749
3614,V3NiO8,2.21580737,-2.145315913333333,3.0103764,4,4,146.3661193340651,143.71469794176633,62.348584356947384,57.05499117238401,59.701787764665696,157.1722217616333,111.62594379799084,45.54627796364244,2.847231474929164,1.412970332273232,mp-755704,755704
3615,LaTe2,7.54785917,-1.6826741637500007,0.00043775,0,0,49.380778670361764,49.38002080026935,23.55195940717073,21.02095711758769,22.286458262379213,157.1722217616333,111.62594379799084,45.54627796364244,2.847231474929164,1.412970332273232,mp-571576,571576
3616,Ca3(AlSi)2,4.26226983,-0.400620935714286,0.000234,0,0,51.11324033240102,48.36521844768429,36.11159579593352,34.57042215470029,35.3410089753169,157.1722217616333,111.62594379799084,45.54627796364244,2.847231474929164,1.412970332273232,mp-9577,9577
3617,CaSi2,5.25374989,-0.33203623333333354,0.0002654,0,0,62.61384331929432,62.50696897306626,46.87813857314354,46.12556633113059,46.501852452137065,157.1722217616333,111.62594379799084,45.54627796364244,2.847231474929164,1.412970332273232,mp-2700,2700
3618,BaZnSn,3.59317192,-0.5257047016666672,0.001002,0,0,35.28391430832349,33.807628791982246,25.560669153798496,24.30574003074597,24.933204592272233,157.1722217616333,111.62594379799084,45.54627796364244,2.847231474929164,1.412970332273232,mp-31148,31148
3619,MnInCu2,7.78334205,0.0767931280172407,3.8443755,1,1,106.84252113831029,106.84252113831033,47.39873081711836,21.023855245223324,34.21129303117084,157.1722217616333,111.62594379799084,45.54627796364244,2.847231474929164,1.412970332273232,mp-22673,22673
3620,CoGe,7.09818629,-0.21742825875000005,0.00108335,0,0,156.21841898202968,147.5999230555069,84.7345528903486,79.8290773416531,82.28181511600084,157.1722217616333,111.62594379799084,45.54627796364244,2.847231474929164,1.412970332273232,mp-21237,21237
3621,CoPO4,-0.63008412,-2.089397054722223,3.99999385,4,1,17.232859592342606,16.058249372647126,15.877038633411832,12.498245532849849,14.18764208313084,157.1722217616333,111.62594379799084,45.54627796364244,2.847231474929164,1.412970332273232,mp-689940,689940
3622,Rb2Hf2O5,1.92797946,-3.1372247555555566,0.0002664,0,0,95.04256543003078,78.0865443180781,45.41050753653124,33.027541579940795,39.219024558236015,15.864889853333333,12.051331973333333,3.813557879999999,1.9528332954965713,1.412970332273232,mp-863749,863749
3623,VSnRh2,8.35323757,-0.4137026612500003,1.1480739,1,1,189.42122732472455,188.3609290068466,79.37225831945622,72.39860950507618,75.8854339122662,157.1722217616333,111.62594379799084,45.54627796364244,2.847231474929164,1.412970332273232,mp-669918,669918
3624,BaCu,2.51138074,-0.07352391000000003,0.000584425,0,0,18.878510336337502,17.791433270682298,9.381985739261541,6.389402451137974,7.885694095199757,157.1722217616333,111.62594379799084,45.54627796364244,2.847231474929164,1.412970332273232,mp-30428,30428
3625,Bi2WO8,2.02167955,-1.4164529981818177,6.06e-05,0,0,69.13138467700574,62.18499728071314,37.558667488846204,34.39922283272095,35.97894516078358,157.1722217616333,111.62594379799084,45.54627796364244,2.847231474929164,1.412970332273232,mp-35397,35397
3626,CrP2S7,1.5539816,-0.6313761168541667,1.9950005,1,1,14.9167755761402,1.4392047756726236,8.817749739301556,0.5125342677898579,4.665142003545707,157.1722217616333,111.62594379799084,45.54627796364244,2.847231474929164,1.412970332273232,mp-768680,768680
3627,ZrSiS,7.6002603,-1.3450657043749992,4.1e-06,0,0,125.61698215296184,123.54153399448768,87.76753518720943,83.4359499564832,85.60174257184632,157.1722217616333,111.62594379799084,45.54627796364244,2.847231474929164,1.412970332273232,mp-3938,3938
3628,LiSc2Au,4.03136507,-0.43146675083333275,0.0003463,0,0,73.35463018404394,73.35463018404393,42.821434283409424,39.40068421681392,41.11105925011167,157.1722217616333,111.62594379799084,45.54627796364244,2.847231474929164,1.412970332273232,mp-864772,864772
3629,SrCu5,5.2272962,-0.06268331444444424,0.000694,0,0,83.52158036840201,82.0002392579516,30.469256943647466,29.173980199165424,29.821618571406447,157.1722217616333,111.62594379799084,45.54627796364244,2.847231474929164,1.412970332273232,mp-2726,2726
3630,CoO,2.70739003,-1.2839680287500004,5.475e-06,4,1,129.97445455430525,129.5462477857682,33.71948145355025,32.94383626604859,33.33165885979942,9.396507036705145,3.944366146705144,5.45214089,2.3349819892238997,0.8544694199911438,mp-19128,19128
3631,TlBr,1.86803356,-1.1055794604166667,0.0006975,0,0,28.074231633230465,28.07423163323046,10.108609721568541,7.847236634336183,8.977923177952363,40.83192998666667,33.63363188666668,7.198298099999993,2.682964423916201,1.412970332273232,mp-22875,22875
3632,Sr(CoGe)2,4.96006755,-0.42725011933333334,0.0158498,0,0,78.07419878611259,70.66677697254754,53.332853342092974,46.951480490057556,50.14216691607527,157.1722217616333,111.62594379799084,45.54627796364244,2.847231474929164,1.412970332273232,mp-7361,7361
3633,AlVNi,5.7260351,0.3753415399999997,0.0052246,0,0,106.59935875027658,106.59935875027662,-3.0818627939648877,-476.1186222238288,-239.60024250889686,157.1722217616333,111.62594379799084,45.54627796364244,2.847231474929164,1.412970332273232,mp-961650,961650
3634,Fe2W,6.5523034,-0.023244380000000103,1.203280725,12,3,261.26180981176043,257.56134306316005,138.3059931422722,135.08231257423657,136.69415285825437,157.1722217616333,111.62594379799084,45.54627796364244,2.847231474929164,1.412970332273232,mp-20868,20868