,formula_pretty,efermi,formation_energy_per_atom,total_magnetization_normalized_formula_units,num_magnetic_sites,num_unique_magnetic_sites,k_voigt,k_reuss,g_voigt,g_reuss,g_vrh,e_total,e_ionic,e_electronic,n,e_ij_max,material_id,b
234,WCl4O,-1.10892814,-1.4034832975,6.97e-05,0,0,8.295272943459155,1.1346784694755143,5.113187930108149,0.6042946365074068,2.858741283307778,157.1722217616333,111.62594379799084,45.54627796364244,2.847231474929164,1.412970332273232,mp-27754,27754
235,LiGaPt2,5.87052042,-0.7147969577083337,0.0002433,0,0,153.37847027938056,153.3784702793805,-10.328474486522055,208.6497924726419,99.16065899305993,157.1722217616333,111.62594379799084,45.54627796364244,2.847231474929164,1.412970332273232,mp-867170,867170
236,Na4CoO3,1.28128286,-1.4771385314008625,2.99937745,2,1,46.65272756462701,45.770838893702546,19.870383225462994,18.849133739504005,19.3597584824835,11.512602906666665,8.00874389,3.503859016666666,1.8718597748406973,1.241128878992139,mp-18762,18762
237,SmCl3,-1.95979362,-2.6602695662499993,0.00107465,0,0,7.672427076227633,0.7139277162678536,4.589715215693246,0.4846649408715606,2.5371900782824035,157.1722217616333,111.62594379799084,45.54627796364244,2.847231474929164,1.412970332273232,mp-863026,863026
238,BiF5,-3.29028788,-2.129343782083333,1.6e-05,0,0,23.662627235969065,5.45785279019676,16.192501105718495,5.686522550502014,10.939511828110255,5.957704384811632,3.491027871503046,2.466676513308587,1.5705656666655448,1.412970332273232,mp-27743,27743
239,Li4TiS4,0.21423668,-1.54464264212963,0.0004038,0,0,25.71228749023294,24.56608135807322,14.671407944259462,13.896241517454117,14.28382473085679,7.0322348099999985,2.9895175833333334,4.042717226666666,2.0106509460039717,0.11193999999999998,mp-861182,861182
240,NiCO3,4.39487297,-1.6550596940000006,0.0,2,1,129.53876006638225,120.07167676738587,71.95903606730344,64.71527014992195,68.3371531086127,6.851941340003056,3.326167123336391,3.5257742166666657,1.877704507281874,1.412970332273232,mp-19147,19147
241,LiFeF4,-2.90572177,-2.766866041388889,4.99884815,2,1,49.80609994985179,47.694106017398795,19.092495567212456,13.174864111538351,16.133679839375404,157.1722217616333,111.62594379799084,45.54627796364244,2.847231474929164,1.412970332273232,mp-777595,777595
242,BMo,9.71915682,-0.5020885320833344,2.9e-06,0,0,311.49193119982385,311.4572397501451,201.08345004768526,198.68023364794675,199.88184184781602,157.1722217616333,111.62594379799084,45.54627796364244,2.847231474929164,1.412970332273232,mp-1890,1890
243,Sc3CoC4,6.17619517,-0.4491226412499998,0.0154943,0,0,180.31689107995473,179.03284919453003,120.5946046360918,118.70961798709779,119.6521113115948,157.1722217616333,111.62594379799084,45.54627796364244,2.847231474929164,1.412970332273232,mp-5075,5075
244,NbGeRu2,7.81599973,-0.2679408087499997,0.7504769,2,1,225.50148733935401,225.50148733975433,1.7433514909535537,138.4680567798104,70.10570413538198,157.1722217616333,111.62594379799084,45.54627796364244,2.847231474929164,1.412970332273232,mp-864669,864669
245,SrMgSn,4.43797409,-0.5629632363888888,0.000185325,0,0,36.34700523019011,35.460796952410654,27.655622244152518,26.09021902700316,26.87292063557784,157.1722217616333,111.62594379799084,45.54627796364244,2.847231474929164,1.412970332273232,mp-30780,30780
246,Li2Ti3O6,5.23191494,-3.084737700606061,0.7745464,2,2,116.92651733121536,97.23617061562075,70.37921759201434,47.993030390343044,59.18612399117869,157.1722217616333,111.62594379799084,45.54627796364244,2.847231474929164,1.412970332273232,mp-760539,760539
247,BMo,9.59055095,-0.4917879395833342,0.000756,0,0,309.4389642080215,309.3187639904487,192.75295857201982,189.02265499716458,190.88780678459221,157.1722217616333,111.62594379799084,45.54627796364244,2.847231474929164,1.412970332273232,mp-999198,999198
248,SiPd,7.88868945,-0.5033976037500008,0.000533625,0,0,149.81354071095606,148.081159367978,65.35871749728253,51.02918159842298,58.19394954785275,157.1722217616333,111.62594379799084,45.54627796364244,2.847231474929164,1.412970332273232,mp-389,389
249,B6O,5.28513093,-0.805272605,2.945e-05,0,0,230.2635721076523,223.73131658665125,210.90092311162257,204.0249220520447,207.46292258183365,6.400912510000011,0.6487379100001267,5.752174599999883,2.3983691542379133,1.412970332273232,mp-1346,1346
250,Al2O3,5.87476121,-3.4265510080000006,0.0,0,0,232.0446815684109,231.70929593500668,149.12935155265998,144.56786574692129,146.84860864979063,9.706237702841706,6.4877297595083725,3.2185079433333352,1.7940200509841955,1.412970332273232,mp-1143,1143
251,Ca(SiAu)2,5.92197758,-0.4776691079999999,0.0001798,0,0,93.78965092167768,92.07092213037814,36.947269108469825,32.50911013480956,34.72818962163969,157.1722217616333,111.62594379799084,45.54627796364244,2.847231474929164,1.412970332273232,mp-7364,7364
252,Ag2BiO3,3.02670031,-0.9207718288888884,0.0002629,0,0,101.13795400122841,98.06511254650171,21.57910221381723,20.271447707207745,20.92527496051249,26.531189300000005,13.586234126666668,12.944955173333332,3.597909833963788,1.399796329399388,mp-23558,23558
253,ZnTe,2.90467691,-0.6789137575000002,2.7e-06,0,0,43.419656727771596,43.40894340527757,22.38256175374485,21.48750555719421,21.93503365546953,11.51668348336608,2.758614610036164,8.758068873329917,2.959403465790009,0.1750013282637571,mp-8884,8884
254,ScCdRh2,4.94335774,-0.6093279687499997,0.0005464,0,0,138.52254833694644,138.52254833694644,52.71796392551917,45.40595418810169,49.06195905681043,157.1722217616333,111.62594379799084,45.54627796364244,2.847231474929164,1.412970332273232,mp-867909,867909
255,TiSnRu2,9.62611734,-0.5834220770833332,9.53e-05,0,0,202.29382850096022,202.2938285009602,107.58943201039743,107.5626524846996,107.57604224754851,157.1722217616333,111.62594379799084,45.54627796364244,2.847231474929164,1.412970332273232,mp-865888,865888
256,TiAlPd2,6.71196101,-0.7610236508333328,0.0004788,0,0,165.87556300738322,165.87556300738314,40.701387875973964,20.121976588296125,30.411682232135043,157.1722217616333,111.62594379799084,45.54627796364244,2.847231474929164,1.412970332273232,mp-865441,865441
257,CaCdAu,3.34483022,-0.6209750991666668,0.001419325,0,0,53.16448126569579,52.56603311978662,20.65576401897325,17.927031944756497,19.291397981864876,157.1722217616333,111.62594379799084,45.54627796364244,2.847231474929164,1.412970332273232,mp-569628,569628
258,YCu5,5.78283527,-0.19024762111111096,0.0005233,0,0,109.10817531844538,108.60425363608203,42.3273257837682,42.01909088506766,42.173208334417936,157.1722217616333,111.62594379799084,45.54627796364244,2.847231474929164,1.412970332273232,mp-2797,2797
259,Co2B,6.8287012,-0.24435592805555592,2.0124056,4,1,250.8660639246606,242.59891531695678,105.11381059761955,103.23015873311222,104.17198466536588,157.1722217616333,111.62594379799084,45.54627796364244,2.847231474929164,1.412970332273232,mp-493,493
260,AlTlO2,3.43592426,-2.431644979583333,4.185e-05,0,0,99.58074095594594,99.58074095594594,42.45329764777662,25.609859024688074,34.03157833623235,157.1722217616333,111.62594379799084,45.54627796364244,2.847231474929164,1.412970332273232,mp-14105,14105
261,TiMn2Ga,5.97030952,-0.23709498417385078,3.0322184,3,2,160.06394501891538,160.06394501891535,81.82599527550519,75.83860664780575,78.83230096165548,157.1722217616333,111.62594379799084,45.54627796364244,2.847231474929164,1.412970332273232,mp-865780,865780
262,Y(CuSi)2,7.43007008,-0.5690537293333335,0.0001936,0,0,117.23702618395016,116.9044723694839,75.93753689071154,74.02228957925769,74.97991323498462,157.1722217616333,111.62594379799084,45.54627796364244,2.847231474929164,1.412970332273232,mp-3390,3390
263,Ba(ZnP)2,4.08763596,-0.6483642113333332,4.9e-06,0,0,55.665482832314744,55.12647258808157,31.416268671028185,26.777292023453075,29.09678034724063,157.1722217616333,111.62594379799084,45.54627796364244,2.847231474929164,1.412970332273232,mp-7426,7426
264,K2NiF4,-0.65428755,-2.7425846208571434,1.9998698,1,1,46.799929125021,46.77809863559024,24.88414856261678,23.193358733101263,24.03875364785902,6.995513833333329,4.858085149999996,2.137428683333333,1.4619947617325217,1.412970332273232,mp-556546,556546
265,Rb2SnO3,1.41725868,-1.9232125550000003,5.865e-05,0,0,43.57979651056139,41.811254737838915,21.457473303970833,9.70218994963109,15.579831626800962,63.65266906333334,60.17681703666667,3.4758520266666664,1.8643637055753544,1.5860716386405755,mp-753798,753798
266,Sc(CoSi)2,7.1932128,-0.7616632949999996,0.0030425,0,0,158.5183548438961,158.48718250278728,91.66596291349317,89.2417551582625,90.45385903587784,157.1722217616333,111.62594379799084,45.54627796364244,2.847231474929164,1.412970332273232,mp-4131,4131
267,Na3PS4,2.1597429,-1.1277847594360635,0.0002616,0,0,23.793755150313444,23.78894945256613,10.746418788726,9.427177280930222,10.08679803482811,11.080689173333333,7.001044810000001,4.079644363333333,2.0198129525610367,0.36397999999999997,mp-28782,28782
268,ScP,5.86876851,-1.4908768941666661,0.0024741,0,0,97.57368203083074,97.57368203083072,65.27894515626001,60.063807155398585,62.67137615582929,157.1722217616333,111.62594379799084,45.54627796364244,2.847231474929164,1.412970332273232,mp-2807,2807
269,ScGa2,4.17955786,-0.5441247983333332,0.0007368,0,0,73.96151275284652,73.93123769533976,52.319950054177376,51.11838198357834,51.71916601887786,157.1722217616333,111.62594379799084,45.54627796364244,2.847231474929164,1.412970332273232,mp-11413,11413
270,Ba(ZnSn)2,4.82218623,-0.4158695980000001,1.185e-05,0,0,43.650044141796215,43.508411183596614,23.70025464759348,22.399126203255843,23.04969042542466,157.1722217616333,111.62594379799084,45.54627796364244,2.847231474929164,1.412970332273232,mp-13920,13920
271,WS2,5.14287161,-1.1539716920833338,2.31e-05,0,0,53.021291480229735,1.6940223036056714,38.41276844395847,0.713227144579904,19.562997794269187,9.26365168666053,0.023402966667661593,9.240248719992868,3.039777741874045,0.5141993762241871,mp-9813,9813
272,Cr,6.52582244,0.4025263400000014,0.0090369,0,0,240.9080546142321,240.90805461423201,-90.48296549662273,-71.23611977261065,-80.85954263461669,157.1722217616333,111.62594379799084,45.54627796364244,2.847231474929164,1.412970332273232,mp-8633,8633
273,ScPRu,7.80083411,-1.190010424444444,9.566666666666666e-06,0,0,174.70285476057072,174.51529524885092,103.31711993169242,102.85226161709845,103.08469077439543,157.1722217616333,111.62594379799084,45.54627796364244,2.847231474929164,1.412970332273232,mp-16305,16305
274,Ca3Al2(SiO4)3,3.75738191,-3.445632545875,3.4275e-05,0,0,154.20723958991124,154.20723958991127,97.00065683527289,96.77405536651115,96.88735610089202,157.1722217616333,111.62594379799084,45.54627796364244,2.847231474929164,1.412970332273232,mp-6008,6008
275,Cu2PbO2,5.06329905,-0.9810454259999993,8.465e-05,0,0,54.945949474345454,46.36049115568039,17.905523401235662,16.265774583031707,17.085648992133684,17.9305490666627,9.11936470999603,8.811184356666667,2.9683639191761286,1.412970332273232,mp-29396,29396
276,In3Ni2,8.44492252,-0.1506924419999997,0.0019256,0,0,92.2610869780467,91.74528805289309,46.39023621526402,44.94312004853902,45.66667813190152,157.1722217616333,111.62594379799084,45.54627796364244,2.847231474929164,1.412970332273232,mp-21385,21385
277,N2,-6.83390328,0.0,7.825e-06,0,0,1.3098836864070464,1.3098836864070464,0.7498159121155222,0.5775010416089599,0.6636584768622411,157.1722217616333,111.62594379799084,45.54627796364244,2.847231474929164,1.412970332273232,mp-25,25
278,ScFe2,5.03813107,-0.27387501499999917,2.73872265,6,2,127.91368216724123,127.91368216724125,66.07484433494575,64.00973784564555,65.04229109029565,157.1722217616333,111.62594379799084,45.54627796364244,2.847231474929164,1.412970332273232,mp-540,540
279,NiI2,4.42185907,-0.37948815333333324,2.0022808,3,2,22.358415965042578,4.871229134533664,11.24086679759694,1.504065597555103,6.3724661975760215,157.1722217616333,111.62594379799084,45.54627796364244,2.847231474929164,1.412970332273232,mp-27638,27638
280,InNi3,8.76985813,-0.04172421749999966,0.6936728,3,1,150.15885019505146,150.15885019505149,69.3349331353239,55.209136944848204,62.27203504008605,157.1722217616333,111.62594379799084,45.54627796364244,2.847231474929164,1.412970332273232,mp-22784,22784
281,CaSiPt,5.41119814,-0.9523060841666661,5.3675e-05,0,0,84.15239691641756,84.15239691641757,22.59034029913254,17.82270531314651,20.206522806139525,157.1722217616333,111.62594379799084,45.54627796364244,2.847231474929164,1.412970332273232,mp-4478,4478
282,Ca2Fe2O5,3.98583387,-2.3575941472222235,10.00000005,14,4,116.48956285157313,76.47589842619536,51.330410156178,24.57921565929581,37.9548129077369,157.1722217616333,111.62594379799084,45.54627796364244,2.847231474929164,1.412970332273232,mp-1370756,1370756
283,K3PO4,0.25812832,-2.5404552027916667,0.000115875,0,0,37.07101415789822,36.75837460058918,18.64807397564673,17.956307147764704,18.302190561705718,157.1722217616333,111.62594379799084,45.54627796364244,2.847231474929164,1.412970332273232,mp-557753,557753
284,Rb2HfF6,-3.14841877,-3.754169493333333,6.01e-05,0,0,21.99524046222661,21.7894828947852,10.5959094291597,9.896511643190667,10.246210536175184,9.511920996669003,7.39250524333567,2.119415753333333,1.455821332902267,1.412970332273232,mp-13947,13947
285,Fe4O5F3,1.78812226,-1.8450950260416665,18.9999507,5,5,136.6959398516192,110.88543031565557,67.52115906932401,52.00821161839707,59.76468534386054,157.1722217616333,111.62594379799084,45.54627796364244,2.847231474929164,1.412970332273232,mp-763353,763353
286,SrHfN2,4.64302131,-1.5583670016666664,8.71e-05,0,0,156.37855291633164,156.34205828200433,116.60904312074018,114.5099906600067,115.55951689037343,155.31974162393243,144.4062428405991,10.913498783333337,3.3035585030892576,1.412970332273232,mp-9383,9383
287,LiMg2Zn,2.89270127,-0.13744063583333332,0.0018193,0,0,40.330931555298925,40.330931555298925,33.18865945553212,21.06588022708252,27.127269841307317,157.1722217616333,111.62594379799084,45.54627796364244,2.847231474929164,1.412970332273232,mp-864762,864762
288,Nb3TeI7,4.07416779,-0.8207750304545459,5.1e-06,0,0,20.318409371100852,4.2429672808976155,13.739444095313456,3.029058475192335,8.384251285252896,10.622098046713717,1.484006603380385,9.138091443333332,3.022927627868939,0.2423679159872446,mp-567713,567713
289,Ca3(AlGe)2,4.1089156,-0.5119482128571425,0.0045976,0,0,47.68666322642223,45.68941709766711,34.25024930630447,32.80396542319162,33.52710736474805,157.1722217616333,111.62594379799084,45.54627796364244,2.847231474929164,1.412970332273232,mp-10670,10670
290,Mg2TiO4,2.48710325,-3.2816905522619053,5.2575e-05,0,0,146.7204155972376,146.7041326639284,76.78126246934698,66.67926017446219,71.73026132190458,157.1722217616333,111.62594379799084,45.54627796364244,2.847231474929164,1.412970332273232,mp-757031,757031
291,NbVO4,3.64782479,-2.8191465741666675,0.0001144,4,1,183.10113418453173,175.21305776972605,84.06981179726661,70.96045091499532,77.51513135613096,16.089085136666668,9.199851283333333,6.889233853333335,2.6247350063069863,4.460237795431987,mp-753679,753679
292,Na2PtO2,3.08070686,-1.3711057166206893,4.51e-05,0,0,73.09109739363285,67.23925374714396,34.47805047604378,20.15645651291396,27.31725349447887,9.249283165480952,4.774735579557255,4.474547585923696,2.1153126449590602,1.412970332273232,mp-22313,22313
293,Li2FeF4,-1.56177024,-2.829387723809524,4.0000484,1,1,32.199100198492005,22.684528301511346,12.071504876429449,8.3734280330183,10.222466454723875,4.606284493333333,2.681314636666667,1.9249698566666664,1.3874328296053349,0.4765601852861818,mp-755718,755718
294,Sn3Ru2,9.264445,-0.17857728150000013,0.00011335,0,0,127.83638727320525,126.3243313928767,59.65751075791393,55.92192804779916,57.78971940285655,157.1722217616333,111.62594379799084,45.54627796364244,2.847231474929164,1.412970332273232,mp-680677,680677
295,Nb2O5,2.56916776,-2.692223025000001,1.13e-05,0,0,104.14678059482327,16.860368663538193,55.20287210653794,39.576572913921815,47.38972251022987,20.88703656334057,13.829676196673903,7.057360366666667,2.6565692851244567,2.3651781698956107,mp-10426,10426
296,RbPdF3,0.81499817,-2.1213191089999994,0.0026176,0,0,70.396074115686,70.396074115686,25.548202760058007,22.606293202980922,24.077247981519463,157.1722217616333,111.62594379799084,45.54627796364244,2.847231474929164,1.412970332273232,mp-9060,9060
297,PbS,5.39026956,-0.7845242265624996,0.0001476,0,0,51.9569838813854,51.9569838813854,32.47373633652934,26.242464057247723,29.358100196888532,323.7562706506478,307.36097910782564,16.395291542822143,4.0491099692181916,1.412970332273232,mp-21276,21276
298,BiI3,0.56637604,-0.7663869175000002,0.00256005,0,0,4.461327553755731,1.7217048288577406,2.6404064237709806,0.772253421728949,1.7063299227499646,10.570938973333332,5.584268499999999,4.986670473333334,2.233085415592815,1.412970332273232,mp-22849,22849
299,LiZrO2,5.66873304,-2.951050153333334,5.9e-05,0,0,161.64231119256652,148.50640290730203,104.43045197986449,95.03067861360942,99.73056529673696,157.1722217616333,111.62594379799084,45.54627796364244,2.847231474929164,1.412970332273232,mp-755253,755253
300,TiCo2Si,8.10358595,-0.6593298858333343,2.0016207,2,1,201.33400725392073,201.33400725392076,90.62806518485128,80.83810631101791,85.7330857479346,157.1722217616333,111.62594379799084,45.54627796364244,2.847231474929164,1.412970332273232,mp-3657,3657
301,BaPPt,4.99687686,-1.0802504202777772,0.000318375,0,0,79.63118131162469,79.63118131162469,32.27087604492485,30.2882415692719,31.279558807098375,157.1722217616333,111.62594379799084,45.54627796364244,2.847231474929164,1.412970332273232,mp-21236,21236
302,Hg2AsF6,-1.01053804,-2.025906078055556,0.00041255,0,0,16.238441613863188,14.824391149261778,5.729100024123938,4.4861172070352024,5.10760861557957,157.1722217616333,111.62594379799084,45.54627796364244,2.847231474929164,1.412970332273232,mp-540925,540925
303,BeCo,5.47128458,-0.3058752800000004,0.4027209,1,1,195.11014362762066,195.11014362762063,121.7541791937783,113.76608505847913,117.76013212612872,157.1722217616333,111.62594379799084,45.54627796364244,2.847231474929164,1.412970332273232,mp-2773,2773
304,TiO,9.28455885,-2.6349294041666678,0.0011274,0,0,224.22078368804273,224.22078368804273,102.5105488294402,27.429966950107794,64.97025788977399,157.1722217616333,111.62594379799084,45.54627796364244,2.847231474929164,1.412970332273232,mp-2664,2664
305,ScBi,5.74104437,-0.6574208275000002,0.0012531,0,0,57.56668693230012,57.566686932300115,33.00681630512069,26.42015800196402,29.713487153542353,157.1722217616333,111.62594379799084,45.54627796364244,2.847231474929164,1.412970332273232,mp-570632,570632
306,TiBe12,4.49753195,-0.0621322194871801,0.0017707,0,0,121.77261543210479,121.77025288594896,67.419708899792,50.49867667243215,58.95919278611207,157.1722217616333,111.62594379799084,45.54627796364244,2.847231474929164,1.412970332273232,mp-11280,11280
307,GaPO4,-0.58837606,-2.585854107638889,0.0003874,0,0,20.12286392635434,19.98687374330795,27.301208194291856,21.64251548308115,24.471861838686504,24.458375769999993,21.76750144,2.6908743299999998,1.6403884692352602,2.5919699999999994,mp-553932,553932
308,CsBr,-1.39183461,-2.0528959977155172,0.0,0,0,6.47613845551012,6.47613845551012,5.009804473879947,4.247597438454934,4.628700956167441,6.093820623333326,3.5959508133333298,2.4978698099999974,1.5804650613031588,1.412970332273232,mp-571222,571222
309,Ca,2.00973745,0.0,0.0031471,0,0,17.005169073224042,17.005169073224042,9.602539379790123,5.489822596570096,7.54618098818011,157.1722217616333,111.62594379799084,45.54627796364244,2.847231474929164,1.412970332273232,mp-45,45
310,LiVF4,-1.06811692,-3.1455119788888894,2.00009665,2,1,47.341326591779726,44.66255335719503,21.74969870900541,10.236782934555633,15.993240821780521,157.1722217616333,111.62594379799084,45.54627796364244,2.847231474929164,1.412970332273232,mp-755547,755547
311,K2Cu(ClF)2,0.14586515,-2.136414135857143,0.9996128,2,1,18.71857343874944,18.60065513783414,11.446992986762957,9.39051398055951,10.418753483661234,7.149242320000013,4.000431936666675,3.148810383333339,1.774488766753213,1.412970332273232,mp-1023132,1023132