,formula_pretty,efermi,formation_energy_per_atom,total_magnetization_normalized_formula_units,num_magnetic_sites,num_unique_magnetic_sites,k_voigt,k_reuss,g_voigt,g_reuss,g_vrh,e_total,e_ionic,e_electronic,n,e_ij_max,material_id,b
1166,Li7SbN4,3.47825136,-0.5417296015277783,0.0,0,0,74.89310345757659,74.89310345757657,66.57929219365738,61.06933240857709,63.82431230111723,10.810469439999999,5.901082039999999,4.9093874,2.215713745049211,0.029619999999999983,mp-1029522,1029522
1167,WN,7.01050989,0.018693197499999314,0.0129959,0,0,279.86792654654914,279.8679265465494,-150.43127116372506,-34.433108515349744,-92.4321898395374,157.1722217616333,111.62594379799084,45.54627796364244,2.847231474929164,1.412970332273232,mp-1001828,1001828
1168,Li6FeN4,2.37546728,-0.5467023581818182,1.99865275,2,1,83.8330766119609,83.2613489453364,69.41525081341425,69.24003451667234,69.3276426650433,157.1722217616333,111.62594379799084,45.54627796364244,2.847231474929164,1.412970332273232,mp-1029739,1029739
1169,Ni4Mo,8.22663782,-0.08286009199999995,0.0085497,0,0,222.5356818709512,222.50555231279344,99.26163897944208,82.28595190376427,90.77379544160317,157.1722217616333,111.62594379799084,45.54627796364244,2.847231474929164,1.412970332273232,mp-11507,11507
1170,Ba3SbN,3.23084157,-0.9259719760000003,2.94e-05,0,0,27.14454220610088,27.00098479748169,16.202866082549995,5.9728557142126455,11.08786089838132,42.35459155000574,31.215021236672417,11.139570313333328,3.337599483660873,1.412970332273232,mp-12814,12814
1171,BC5,8.98009115,0.25710252513888915,0.0009395,0,0,377.83838400477407,377.2677434161805,363.52529786882025,330.0830328844203,346.8041653766203,157.1722217616333,111.62594379799084,45.54627796364244,2.847231474929164,1.412970332273232,mp-1018649,1018649
1172,CaAg2,2.75394957,-0.2950495877777775,0.0020761,0,0,49.977610856516826,46.53855105076287,16.150907497640137,14.710950030511228,15.430928764075682,157.1722217616333,111.62594379799084,45.54627796364244,2.847231474929164,1.412970332273232,mp-13270,13270
1173,Be2Nb3,4.24763324,-0.134875928000001,0.00016045,0,0,165.11407599677835,165.10528809232542,78.62049165131529,78.19172006817038,78.40610585974284,157.1722217616333,111.62594379799084,45.54627796364244,2.847231474929164,1.412970332273232,mp-11272,11272
1174,WSe2,-1.38480242,-0.8707656282291664,0.0,0,0,18.570509179765793,-0.2449797727880812,13.550966616400904,-0.20472584143502928,6.673120387482937,4.7077147866203335,0.05815770328700017,4.649557083333334,2.15628316399617,0.21274719978414988,mp-1023936,1023936
1175,CuAs,6.46687637,0.05399666000000014,9.61e-05,0,0,102.16336659659255,102.16091870242559,28.091410600415273,24.421193005845723,26.256301803130498,157.1722217616333,111.62594379799084,45.54627796364244,2.847231474929164,1.412970332273232,mp-12070,12070
1176,TiZnN2,2.95685075,-1.0288920770833334,6.5875e-05,0,0,154.7316529866967,154.11835131211677,55.31861747736435,55.144946013937876,55.23178174565111,15.856011383333332,7.932776809999999,7.923234573333333,2.814824075023754,1.0711529772166066,mp-1016108,1016108
1177,CaZrN2,4.71532549,-1.664115605000001,1.7e-06,0,0,162.56636808530436,162.08442537831635,123.80135522710043,122.19842487300822,122.99989005005432,108.11979236058414,97.34861247725081,10.771179883333337,3.2819475747387155,1.412970332273232,mp-1029267,1029267
1178,Ti3As,7.22562775,-0.49770700749999985,0.05952,0,0,125.91092538905478,125.9109253890548,50.672822796440606,44.01610053099757,47.34446166371909,157.1722217616333,111.62594379799084,45.54627796364244,2.847231474929164,1.412970332273232,mp-12071,12071
1179,Y2Fe2O7,2.69142508,-2.5915399516666664,8.0061781,4,2,166.54448809989952,166.54448809989952,70.62526230846875,70.51202358537184,70.56864294692029,157.1722217616333,111.62594379799084,45.54627796364244,2.847231474929164,1.412970332273232,mp-1379819,1379819
1180,CeSe2,6.50553946,-1.9076539040624994,0.846685525,4,1,68.36090954524667,68.32684194474166,24.73036484153334,17.234163067228458,20.982263954380898,157.1722217616333,111.62594379799084,45.54627796364244,2.847231474929164,1.412970332273232,mp-1320,1320
1181,ZnPdF6,-1.99652884,-1.9820648231250004,0.0002774,0,0,39.616425326417044,33.204025605500064,29.41088638452935,19.727278715159017,24.569082549844182,7.172430916667935,3.0966522800012686,4.075778636666667,2.018855774112323,1.412970332273232,mp-13983,13983
1182,P2W,8.89318478,-0.3770991105555564,0.0021253,0,0,189.35173129569245,186.8353689845729,133.94362404301026,131.02898188022814,132.4863029616192,157.1722217616333,111.62594379799084,45.54627796364244,2.847231474929164,1.412970332273232,mp-11328,11328
1183,LiC12,5.10006627,-0.006298209487177622,0.0006186,0,0,235.66275536499654,14.607236682407857,188.76085796278565,7.17631925459847,97.96858860869206,157.1722217616333,111.62594379799084,45.54627796364244,2.847231474929164,1.412970332273232,mp-1021323,1021323
1184,CaCd2,2.63217058,-0.31820470416666663,0.0026928,0,0,40.30895054744167,40.26921738950699,23.416347970959176,23.11400177520635,23.265174873082763,157.1722217616333,111.62594379799084,45.54627796364244,2.847231474929164,1.412970332273232,mp-1078,1078
1185,AlCuPt2,7.77803959,-0.6977324649999996,9.18e-05,0,0,196.10368845249735,195.85287545371136,86.37793363362502,77.87531115598783,82.12662239480642,157.1722217616333,111.62594379799084,45.54627796364244,2.847231474929164,1.412970332273232,mp-12550,12550
1186,Zr,4.36231891,0.0,0.0002669,0,0,94.31564328995162,93.94303414418384,34.91744292448877,33.09402220546328,34.00573256497603,157.1722217616333,111.62594379799084,45.54627796364244,2.847231474929164,1.412970332273232,mp-131,131
1187,MnAu,5.06466747,-0.010067458965517417,4.073306,1,1,116.11827848409484,116.11827848409479,43.97313710853177,20.178682461225467,32.07590978487862,157.1722217616333,111.62594379799084,45.54627796364244,2.847231474929164,1.412970332273232,mp-12674,12674
1188,Na2MnN2,1.92750203,-0.36221009370689644,2.25e-07,0,0,50.019813106754185,45.885520421177304,23.503810602434093,17.91240642772875,20.70810851508142,157.1722217616333,111.62594379799084,45.54627796364244,2.847231474929164,1.412970332273232,mp-1029605,1029605
1189,TiAl2,7.62130197,-0.42709493277777827,0.0012536,0,0,108.18475645946184,108.16464567150447,82.16856558501925,79.8276641537215,80.99811486937037,157.1722217616333,111.62594379799084,45.54627796364244,2.847231474929164,1.412970332273232,mp-11809,11809
1190,BW,8.9380068,-0.3561399545833339,2.185e-05,0,0,340.87070932334984,340.81789913466656,190.29286384374956,181.66245467113427,185.97765925744193,157.1722217616333,111.62594379799084,45.54627796364244,2.847231474929164,1.412970332273232,mp-1008487,1008487
1191,Al2Ru,9.0433687,-0.7188397850000001,0.00088655,0,0,168.1252423768454,166.5092730619179,105.99981092560311,100.72400236913404,103.36190664736858,157.1722217616333,111.62594379799084,45.54627796364244,2.847231474929164,1.412970332273232,mp-10910,10910
1192,BaHfN2,3.37402275,-1.5220166712500003,0.00410915,0,0,107.23010206580946,101.35178573137298,48.8829861337485,38.912854969519444,43.89792055163397,29.961356996666666,22.692207909999993,7.269149086666668,2.6961359547817074,1.412970332273232,mp-10322,10322
1193,Pt,7.2851128,0.0,0.0514353,0,0,243.72306728191415,243.7230672819141,51.64023904397918,46.10644418780427,48.873341615891725,157.1722217616333,111.62594379799084,45.54627796364244,2.847231474929164,1.412970332273232,mp-126,126
1194,MgSnP2,3.77838905,-0.30968043916666677,2.55e-05,0,0,56.90181482508896,56.90125106381235,28.621307273367943,24.93725217060707,26.779279721987507,157.1722217616333,111.62594379799084,45.54627796364244,2.847231474929164,1.412970332273232,mp-1009083,1009083
1195,CaSn2Rh,7.06868208,-0.6542506824999998,0.0009325,0,0,67.26092499705538,64.88275872933765,35.20583797274075,28.921706389700258,32.06377218122051,157.1722217616333,111.62594379799084,45.54627796364244,2.847231474929164,1.412970332273232,mp-11959,11959
1196,PtN2,5.36411293,0.6822390766666663,1e-07,0,0,119.57834609951556,118.38905936855325,99.34119726910609,-50.784754699747786,24.27822128467915,157.1722217616333,111.62594379799084,45.54627796364244,2.847231474929164,1.412970332273232,mp-1008809,1008809
1197,BaCN2,0.63403185,-0.9756207000000003,2.01e-05,0,0,48.372269432691965,46.90628795188819,13.92672808886988,7.810557858239856,10.868642973554868,9.649264900019336,6.412128613352674,3.2371362866666638,1.7992043482235873,1.412970332273232,mp-1029375,1029375
1198,N2,-5.01384891,5.210484055,6.0000805,2,1,0.6604390516062183,0.6385637977028353,0.23521914135060665,0.22387869636931768,0.22954891885996215,1.4079819200000794,1.0266667460347744e-06,1.4079808933333335,1.1865837068379683,1.412970332273232,mp-12103,12103
1199,ZrN,7.09618375,-1.8601482175000008,0.0002243,0,0,246.85201631661442,246.85201631661448,147.72492646300043,137.14797043292708,142.43644844796376,157.1722217616333,111.62594379799084,45.54627796364244,2.847231474929164,1.412970332273232,mp-1352,1352
1200,CaNiGe2,5.67838549,-0.5323925650000003,7.1e-06,0,0,76.98915672648803,73.69180076437502,36.483435569311816,34.65488723816454,35.56916140373818,157.1722217616333,111.62594379799084,45.54627796364244,2.847231474929164,1.412970332273232,mp-13512,13512
1201,BP,7.5307309,-0.40748731624999923,0.0001155,0,0,160.51811416973587,160.51811416973587,164.29973532789518,159.90447699439335,162.10210616114426,9.27207114692538,0.09672463692414628,9.175346510001233,3.0290834438821976,0.01681635677245407,mp-1479,1479
1202,ZrN,5.51702623,-1.411655542500002,0.02156375,0,0,200.42284777727593,199.49797333205186,89.34200954426237,62.938991369372886,76.14050045681762,157.1722217616333,111.62594379799084,45.54627796364244,2.847231474929164,1.412970332273232,mp-13126,13126
1203,YCuSn,6.61376399,-0.6149348222222221,5.345e-05,0,0,76.68035969306976,74.96423553312403,52.523115142455026,51.1642970826704,51.843706112562714,157.1722217616333,111.62594379799084,45.54627796364244,2.847231474929164,1.412970332273232,mp-13202,13202
1204,Co3Mo,6.90188302,-0.05267117750000061,0.93838765,8,2,260.4888949343199,260.4424666165154,134.95886267257848,131.4619838852813,133.2104232789299,157.1722217616333,111.62594379799084,45.54627796364244,2.847231474929164,1.412970332273232,mp-1139,1139
1205,Mg2Pt,4.57656917,-0.7084344999999997,0.00017285,0,0,72.86206220702805,72.59112898769685,44.13224476319318,36.15189322946394,40.14206899632856,157.1722217616333,111.62594379799084,45.54627796364244,2.847231474929164,1.412970332273232,mp-13208,13208
1206,NbN,6.00976379,-0.8279634925000003,0.0055452,0,0,226.83354322898091,226.83354322898103,19.170330849469753,15.743156991982183,17.45674392072597,157.1722217616333,111.62594379799084,45.54627796364244,2.847231474929164,1.412970332273232,mp-1018142,1018142
1207,Hf3(CuSi)4,8.18230591,-0.4830410363636368,0.0012533,0,0,153.70222863700323,153.26057892916705,85.55068138372053,80.19724626873733,82.87396382622893,157.1722217616333,111.62594379799084,45.54627796364244,2.847231474929164,1.412970332273232,mp-10245,10245
1208,SrCrN2,4.68179385,-0.9912788779166668,4.025e-06,0,0,94.75131766476343,89.7485713834908,34.842008675770224,28.614062434897754,31.72803555533399,157.1722217616333,111.62594379799084,45.54627796364244,2.847231474929164,1.412970332273232,mp-1029838,1029838
1209,P,-3.41270341,0.04504319416666647,9.425e-06,0,0,4.891121898994886,-0.07217567352133501,3.3263338995187466,-0.060591934615130225,1.6328709824518082,2.780654886666667,0.11918207666666668,2.66147281,1.631402099422457,1.412970332273232,mp-1014013,1014013
1210,HfAg,4.65726861,-0.11511337583333336,1.55e-05,0,0,117.38331147615378,117.20913119293964,56.36373680894287,44.16945567831348,50.26659624362817,157.1722217616333,111.62594379799084,45.54627796364244,2.847231474929164,1.412970332273232,mp-13156,13156
1211,RbMnN2,2.57405348,-0.45322251151400916,0.0368401,0,0,114.49554157637219,114.49554157616495,42.412351942266056,31.609460171247477,37.01090605675677,157.1722217616333,111.62594379799084,45.54627796364244,2.847231474929164,1.412970332273232,mp-1029835,1029835
1212,Zn2CuAu,4.90163336,-0.15582695250000045,1.7e-06,0,0,112.07902721878607,111.9428070523123,28.216169397889182,24.567481282458218,26.3918253401737,157.1722217616333,111.62594379799084,45.54627796364244,2.847231474929164,1.412970332273232,mp-12759,12759
1213,B2CN,7.63607346,-0.4391093683333329,0.0023625,0,0,326.14401618105705,322.6840578448619,280.368474569804,241.57426308975656,260.97136882978026,157.1722217616333,111.62594379799084,45.54627796364244,2.847231474929164,1.412970332273232,mp-1008527,1008527
1214,KAg2PS4,2.66010495,-0.7275065627708335,5.7e-06,0,0,41.06116681252845,33.683870897430474,14.731600731489092,11.990707076186792,13.361153903837941,10.551533466666665,4.819719666666665,5.7318138,2.394120673650349,0.22334999999999994,mp-12532,12532
1215,ScBe5,4.01052652,-0.19542277499999963,1.03e-05,0,0,108.51371104437901,108.42864196666888,106.58120671743787,100.81098573458357,103.69609622601072,157.1722217616333,111.62594379799084,45.54627796364244,2.847231474929164,1.412970332273232,mp-11277,11277
1216,MnAu4,5.14233467,-0.07754984558620706,4.0396414,1,1,128.5473533021324,128.54480777929322,33.911756672706154,27.943024387891505,30.92739053029883,157.1722217616333,111.62594379799084,45.54627796364244,2.847231474929164,1.412970332273232,mp-12565,12565
1217,PbS,4.79466635,-0.7460190515624996,0.0014498,0,0,33.904795437403514,18.796376056716287,19.678250832927127,79.78736284007294,49.73280683650003,157.1722217616333,111.62594379799084,45.54627796364244,2.847231474929164,1.412970332273232,mp-1018115,1018115
1218,Y2(Al3Co)3,6.61411039,-0.5647616438095235,9.685e-05,0,0,110.59322304335952,109.06624676501949,76.1895403428927,75.289675241757,75.73960779232485,157.1722217616333,111.62594379799084,45.54627796364244,2.847231474929164,1.412970332273232,mp-11486,11486
1219,NaZnAs,2.79003367,-0.42500744718390787,0.0002731,0,0,39.16009267346769,38.542587534614285,22.9305864837861,19.843331708549215,21.386959096167658,28.556859436666667,10.450572503333332,18.106286933333333,4.255148285704428,1.412970332273232,mp-13097,13097
1220,CaMgGe,3.627325,-0.5683345599999997,5.18e-05,0,0,46.97429710682887,46.68452645163707,38.38508658420575,37.7565367563406,38.07081167027317,157.1722217616333,111.62594379799084,45.54627796364244,2.847231474929164,1.412970332273232,mp-15641,15641
1221,NaVN2,1.78745779,-0.8231559810129312,7.5e-08,0,0,45.76746402994271,44.24113389378828,13.761768306393758,17.43006629919838,15.59591730279607,18.032342913333334,11.622888036666666,6.409454876666666,2.5316901225597626,1.412970332273232,mp-1029711,1029711
1222,TiTeAs,7.35000576,-0.8317303677777789,1.5e-07,0,0,83.3056639247239,83.0838680326435,69.35893177196671,65.11500647765504,67.23696912481088,157.1722217616333,111.62594379799084,45.54627796364244,2.847231474929164,1.412970332273232,mp-11113,11113
1223,GeSe,5.02804204,-0.4432921486718744,0.0016941,0,0,58.19171299430622,58.19171299430622,48.75268007523375,40.4869673751278,44.61982372518077,157.1722217616333,111.62594379799084,45.54627796364244,2.847231474929164,1.412970332273232,mp-10759,10759
1224,Cu2SnS3,5.40571651,-0.5784565823958339,0.00338485,0,0,65.91550731009377,65.90211742426534,29.46351331883665,24.954911462076684,27.209212390456667,24.24701381,3.963786479999999,20.28322733,4.503690412317436,0.29123185839753135,mp-10519,10519
1225,ZnNiSb,7.12105914,-0.2955355966666667,0.0010489,0,0,102.08535045843938,102.08535045834864,35.73949765510244,34.64617478108644,35.19283621809444,157.1722217616333,111.62594379799084,45.54627796364244,2.847231474929164,1.412970332273232,mp-11621,11621
1226,ScGaNi2,6.35651851,-0.5701341281249999,4.33e-05,0,0,129.71429655887087,129.71429655887093,51.92194430044781,46.25494737743176,49.08844583893979,157.1722217616333,111.62594379799084,45.54627796364244,2.847231474929164,1.412970332273232,mp-11400,11400
1227,Zr6Al2Ni,4.92714515,-0.3465577900000009,0.0089303,0,0,104.88346321821513,104.76972883748581,51.421745907047125,51.324360278836515,51.37305309294182,157.1722217616333,111.62594379799084,45.54627796364244,2.847231474929164,1.412970332273232,mp-13092,13092
1228,CeO2,3.32955458,-3.8091486233333334,0.00528135,0,0,142.7222445338692,121.24349129483844,59.194784593568095,33.75718460163315,46.47598459760062,157.1722217616333,111.62594379799084,45.54627796364244,2.847231474929164,1.412970332273232,mp-1018664,1018664
1229,CrFe3,6.11122556,0.06366455500000079,5.6826512,4,3,184.28945325621498,184.28945325621495,96.87153159857574,79.54710681057598,88.20931920457586,157.1722217616333,111.62594379799084,45.54627796364244,2.847231474929164,1.412970332273232,mp-1018067,1018067
1230,ZrBe2,3.54143003,-0.16392619333333394,0.0015537,0,0,119.51325656277183,119.47838717313827,96.73634037977554,91.59583616634244,94.16608827305899,157.1722217616333,111.62594379799084,45.54627796364244,2.847231474929164,1.412970332273232,mp-1252,1252
1231,VB2,8.85993682,-0.7388403661111115,0.0028625,0,0,288.7364016012036,282.34154090425557,243.47471930255603,238.9734710777751,241.22409519016554,157.1722217616333,111.62594379799084,45.54627796364244,2.847231474929164,1.412970332273232,mp-1491,1491
1232,AlFeCo2,6.60723177,-0.37134927750000024,4.978493,3,2,187.92685090423177,187.92685090420036,107.14154980156732,89.07760790914612,98.10957885535672,157.1722217616333,111.62594379799084,45.54627796364244,2.847231474929164,1.412970332273232,mp-10884,10884
1233,CuRhO2,4.15935606,-0.9612006150000001,3e-07,0,0,173.3309542626754,154.59027749302444,50.24028194410605,39.13513180252011,44.687706873313076,13.71177421999136,1.5541056866580247,12.157668533333334,3.4867848418469034,1.412970332273232,mp-14116,14116
1234,CaZnGe,4.01204886,-0.5302843133333335,0.00079,0,0,53.74840346756523,44.853994959432455,40.45761396466223,37.00005017200531,38.72883206833377,157.1722217616333,111.62594379799084,45.54627796364244,2.847231474929164,1.412970332273232,mp-16263,16263
1235,Mg2Si,3.40203031,-0.128726743333333,0.0001926,0,0,52.85557907928166,52.855579079281654,44.5731194955607,44.56840823665695,44.57076386610882,23.00334385666518,7.184915409998514,15.818428446666664,3.977238796786869,1.412970332273232,mp-1367,1367
1236,Fe,5.30148183,0.0,2.1850741,1,1,182.45924080846518,182.4592408084652,77.8373141897068,69.37863840687754,73.60797629829217,157.1722217616333,111.62594379799084,45.54627796364244,2.847231474929164,1.412970332273232,mp-13,13
1237,TiBe,5.08191279,-0.14029816916666693,0.0005824,0,0,125.89657679775857,125.89657679775853,83.75673746560328,65.44078534531538,74.59876140545933,157.1722217616333,111.62594379799084,45.54627796364244,2.847231474929164,1.412970332273232,mp-11279,11279
1238,B2Ru,8.39468822,-0.28590921944444386,0.0006327,0,0,288.35454732683024,282.7268434302347,176.26906298570145,158.8797387046639,167.57440084518268,157.1722217616333,111.62594379799084,45.54627796364244,2.847231474929164,1.412970332273232,mp-1077,1077
1239,ScGa2,4.54431604,-0.5667044983333334,0.00057595,0,0,80.96833446426326,79.23263299647839,48.058152423585334,45.281222244218974,46.669687333902154,157.1722217616333,111.62594379799084,45.54627796364244,2.847231474929164,1.412970332273232,mp-11412,11412
1240,Sr3B3N5,2.75163426,-1.1872793547727283,0.00032555,0,0,71.73040575741501,66.45068716619453,28.457670499963704,23.1431215734048,25.800396036684255,12.435854830000002,8.005183266666668,4.430671563333334,2.1049160466235546,1.412970332273232,mp-1029490,1029490
1241,Ti3NiS6,6.2277002,-1.494519708875,0.0001247,0,0,71.95328355189707,71.1270203448302,48.45365888890144,44.302423458255916,46.37804117357868,157.1722217616333,111.62594379799084,45.54627796364244,2.847231474929164,1.412970332273232,mp-13993,13993
1242,Ti(WO4)2,1.29430081,-2.4337712171212114,0.000982,0,0,90.57506447723752,75.18349346661225,46.010611953697634,41.97389333394493,43.99225264382128,157.1722217616333,111.62594379799084,45.54627796364244,2.847231474929164,1.412970332273232,mp-1041486,1041486