,formula_pretty,efermi,formation_energy_per_atom,total_magnetization_normalized_formula_units,num_magnetic_sites,num_unique_magnetic_sites,k_voigt,k_reuss,g_voigt,g_reuss,g_vrh,e_total,e_ionic,e_electronic,n,e_ij_max,material_id,b
2630,Nb2Al,5.91002105,-0.293137022,0.0004957399999999999,0,0,160.60581470815094,160.44492850167597,83.05357725840496,81.87125514742303,82.462416202914,157.1722217616333,111.62594379799084,45.54627796364244,2.847231474929164,1.412970332273232,mp-18427,18427
2631,Si12Ni31,9.46251987,-0.4711331632558142,0.0002793,0,0,198.91398644607446,198.60045287746564,68.03999822469781,67.07733000854337,67.55866411662059,157.1722217616333,111.62594379799084,45.54627796364244,2.847231474929164,1.412970332273232,mp-27276,27276
2632,CuCl,3.79302604,-0.6852623050000002,0.00028,0,0,48.31540985892802,48.31540985892804,11.838913258703583,9.062115312803716,10.450514285753648,7.481689559406114,1.780521659406235,5.701167899999878,2.3877118544748814,0.5079946255894863,mp-22914,22914
2633,Li(Fe3Ge2)2,5.36195594,-0.16761400121212297,11.4057945,6,1,135.2061156503085,135.00974658945836,67.33177835263511,63.04430013041958,65.18803924152735,157.1722217616333,111.62594379799084,45.54627796364244,2.847231474929164,1.412970332273232,mp-624492,624492
2634,Cr2Te3,6.0179574,-0.4655042084999991,6.02984075,8,3,42.00721056293517,40.92075226728998,26.805648435523096,25.229443571775327,26.017546003649212,157.1722217616333,111.62594379799084,45.54627796364244,2.847231474929164,1.412970332273232,mp-2750,2750
2635,SiC,8.07467192,-0.20451779583333263,2.0133333333333333e-05,0,0,213.09996252960173,213.0971958345728,189.04561350104942,184.64479005167894,186.84520177636418,10.441375060031284,3.376322880031284,7.065052180000001,2.6580165876081363,0.1348226702005285,mp-7631,7631
2636,NiP3W2,8.81239389,-0.407393361666666,0.00142165,0,0,207.94201978492254,201.3678330572637,109.28588853777381,97.10036691638598,103.1931277270799,157.1722217616333,111.62594379799084,45.54627796364244,2.847231474929164,1.412970332273232,mp-29618,29618
2637,YMgIn,5.04136778,-0.4130128788888893,0.00036383333333333336,0,0,53.98118298621993,53.89409569096313,40.82089503796576,38.847671135859684,39.83428308691272,157.1722217616333,111.62594379799084,45.54627796364244,2.847231474929164,1.412970332273232,mp-21503,21503
2638,KNbS2,5.25065051,-1.4144719648125,0.00192465,0,0,73.13073030544483,73.11812727948771,44.694649400291944,43.2017414324182,43.94819541635508,12.248739550020074,1.6270508833534034,10.62168866666667,3.2590932276734077,1.412970332273232,mp-7938,7938
2639,ScAlCo2,6.25136976,-0.5154284212500002,0.0005696,0,0,147.51092037767484,147.51092037765025,91.32521431345496,91.18644756833746,91.2558309408962,157.1722217616333,111.62594379799084,45.54627796364244,2.847231474929164,1.412970332273232,mp-862602,862602
2640,Na8SnSb4,2.20095223,-0.44652908672413827,1.21e-05,0,0,18.156425392715562,18.156425392715562,9.319052938089802,8.277152526564027,8.798102732326914,157.1722217616333,111.62594379799084,45.54627796364244,2.847231474929164,1.412970332273232,mp-3138,3138
2641,Mg3NF3,2.03579424,-2.7908290574999994,0.0001032,0,0,108.55963444392306,108.55963444392307,81.3910741500482,80.94179763505868,81.16643589255344,9.007120193333334,6.1954210633333355,2.8116991299999974,1.6768121928230357,1.412970332273232,mp-7604,7604
2642,CaNi5,5.9714397,-0.11092726166666722,1.944467,5,2,126.14459395342026,123.8610463506307,65.78316007419308,64.64464755611435,65.21390381515371,157.1722217616333,111.62594379799084,45.54627796364244,2.847231474929164,1.412970332273232,mp-774,774
2643,Si3Pt,8.08657353,-0.016973765000000363,0.00183115,0,0,115.95417810627035,114.91336134614411,18.106169858978443,-47.443526675936724,-14.66867840847914,157.1722217616333,111.62594379799084,45.54627796364244,2.847231474929164,1.412970332273232,mp-972763,972763
2644,TiCr2,6.23160195,-0.10249348902777793,0.000471725,0,0,197.63326279953696,197.62308721706177,75.08153686117038,74.2461290389607,74.66383295006554,157.1722217616333,111.62594379799084,45.54627796364244,2.847231474929164,1.412970332273232,mp-568636,568636
2645,YbSiPt2,5.98580311,-1.0432835449999995,0.001139425,0,0,132.90162924352472,125.41575751300996,48.315101457428185,44.374573612411815,46.34483753492,157.1722217616333,111.62594379799084,45.54627796364244,2.847231474929164,1.412970332273232,mp-864645,864645
2646,VRh3,7.14454927,-0.37994240999999995,0.00062295,0,0,251.44920191380913,251.15532802224644,129.34873603557725,124.75000244722068,127.04936924139896,157.1722217616333,111.62594379799084,45.54627796364244,2.847231474929164,1.412970332273232,mp-866161,866161
2647,ScRh,5.66018101,-1.0312111024999995,0.0011103,0,0,137.71392428899287,137.71392428899287,61.1984939421998,60.11431290088602,60.65640342154291,157.1722217616333,111.62594379799084,45.54627796364244,2.847231474929164,1.412970332273232,mp-1780,1780
2648,AlCuSe2,3.90505662,-0.8615172974218748,0.0001385,0,0,62.54332178149012,62.487140224223296,30.42650604941405,26.43829767336366,28.432401861388854,10.121075888980734,1.7425290132336582,8.378546875747077,2.8945719676226873,0.11461139777187779,mp-8016,8016
2649,AlPS4,0.40971546,-0.9194032793055555,0.0,0,0,12.120948555542178,3.710794598732565,6.950162073645342,0.9447764200407843,3.947469246843063,4.039638773333333,0.8645599066666666,3.1750788666666665,1.7818750985034464,0.00607,mp-27462,27462
2650,Mn2O3,3.49432411,-2.013759209047413,8.000292575,16,4,150.11747543847167,150.1120640494945,51.904990161756245,50.43685272374915,51.1709214427527,157.1722217616333,111.62594379799084,45.54627796364244,2.847231474929164,1.412970332273232,mp-565203,565203
2651,V2Cd2O7,-0.20574979,-2.0833823577272725,1e-07,0,0,87.19651844416725,82.95472895181018,27.12095556798812,24.77306159326249,25.947008580625305,13.740023383333337,9.168303473333335,4.571719910000001,2.1381580647837994,1.412970332273232,mp-18740,18740
2652,W(OF)2,-2.83408132,-2.484498590999999,0.0004676,0,0,50.779767134696094,11.065005948043945,21.56927739349026,-2.647577416014393,9.460849988737934,15.490849366666666,12.370727950000001,3.1201214166666666,1.7663865422570073,5.828212670476259,mp-759764,759764
2653,Li2O2,1.32626051,-1.6501702366666664,0.0,0,0,71.68055018361522,71.01317707982521,52.767344119144745,47.73697069897813,50.25215740906144,9.117499313347956,5.957602970014594,3.1598963433333616,1.7776097275086458,1.412970332273232,mp-841,841
2654,Mn3GeC,7.64043582,-0.05811040375862149,2.7688241,3,1,241.5799980774031,241.57999807740313,126.0465884270649,114.97198069418788,120.50928456062638,157.1722217616333,111.62594379799084,45.54627796364244,2.847231474929164,1.412970332273232,mp-20180,20180
2655,ZnSiP2,4.44458853,-0.3134300504166667,6.91e-05,0,0,84.85420169604622,84.8541839786574,56.017609948601965,51.14112252081654,53.579366234709255,12.41888436999372,1.8894018399937156,10.529482530000005,3.244916413407286,0.11634218559285756,mp-4763,4763
2656,Cs2GeCl6,-0.78887284,-1.809585630095785,0.0005009,0,0,8.257661139794997,8.257661139795,4.718946311157135,4.550589623064641,4.6347679671108875,7.162110463335325,4.428594213335338,2.7335162499999868,1.6533348874320613,1.412970332273232,mp-27882,27882
2657,Ca2PdAu,3.71570871,-0.7441345449999996,0.0020194,0,0,52.85831718669092,52.858317186690904,22.600200244097994,22.30136578572588,22.450783014911938,157.1722217616333,111.62594379799084,45.54627796364244,2.847231474929164,1.412970332273232,mp-863744,863744
2658,Cu3AsSe4,3.61427009,-0.38305662804687435,0.0002785,0,0,61.656383172175325,61.64498406643627,23.14788074535189,20.747828686358513,21.9478547158552,157.1722217616333,111.62594379799084,45.54627796364244,2.847231474929164,1.412970332273232,mp-675626,675626
2659,TlTe3Pt2,5.76940749,-0.6425049030555557,0.00014655,0,0,29.86333799858709,14.334645461771522,18.608562315238768,11.029826012477749,14.819194163858258,157.1722217616333,111.62594379799084,45.54627796364244,2.847231474929164,1.412970332273232,mp-9251,9251
2660,Li2O,-0.10886387,-2.0615979138888885,0.0,0,0,78.13029479834444,78.13029479834441,71.08340156889842,68.30898012559805,69.69619084724823,7.265160785943639,4.34341663814057,2.9217441478030692,1.7093110155273292,1.412970332273232,mp-1960,1960
2661,Na(CuS)4,5.24262047,-0.595812836561303,0.0022589,0,0,60.43015382487553,56.0631156906797,26.125099816903667,17.01085200197553,21.567975909439596,157.1722217616333,111.62594379799084,45.54627796364244,2.847231474929164,1.412970332273232,mp-29069,29069
2662,TiN,8.76602647,-1.897004114166668,0.0002595,0,0,280.93937413147614,280.93937413147614,177.1453676878393,174.38209728118727,175.7637324845133,157.1722217616333,111.62594379799084,45.54627796364244,2.847231474929164,1.412970332273232,mp-492,492
2663,Zn3C,3.58516696,1.0455029100000002,7.7e-06,0,0,102.01700051281955,101.43050773425603,-12.937054867410712,-9.822029281005161,-11.379542074207937,157.1722217616333,111.62594379799084,45.54627796364244,2.847231474929164,1.412970332273232,mp-981336,981336
2664,VBiO4,3.39345985,-2.1349448025,0.00032985,0,0,128.82051794774793,126.38635586723767,46.81647827870598,43.17382474448264,44.99515151159431,157.1722217616333,111.62594379799084,45.54627796364244,2.847231474929164,1.412970332273232,mp-23044,23044
2665,La2S3,6.01959917,-2.4943648978749997,0.00048995,0,0,69.71498810310598,68.60888406224555,32.52378176100307,31.869694822691315,32.1967382918472,157.1722217616333,111.62594379799084,45.54627796364244,2.847231474929164,1.412970332273232,mp-7475,7475
2666,Mn3ZnC,5.18388028,-0.03187443275862165,6.9852646,3,1,192.0847422836863,192.08474228368632,72.03202462058438,70.18545492983368,71.10873977520903,157.1722217616333,111.62594379799084,45.54627796364244,2.847231474929164,1.412970332273232,mp-2930,2930
2667,MnInPd2,6.48744633,-0.3933454669827592,4.1572152,1,1,127.35737152457676,127.3573715245768,43.163890334885544,13.442585130274272,28.30323773257991,157.1722217616333,111.62594379799084,45.54627796364244,2.847231474929164,1.412970332273232,mp-31328,31328
2668,MnGePd,6.24742976,-0.29140981875478883,3.254792566666667,3,1,130.95500758195396,123.7690562817996,39.63482816687333,29.16668637930521,34.40075727308927,157.1722217616333,111.62594379799084,45.54627796364244,2.847231474929164,1.412970332273232,mp-610972,610972
2669,BaZrN2,3.14991617,-1.4247567975000006,7.87e-05,0,0,101.766617942841,98.14674819205614,44.99280787234897,34.88924793698241,39.94102790466569,33.447679380000004,25.710880056666678,7.736799323333334,2.7815102594334133,1.412970332273232,mp-3104,3104
2670,YNi4B,6.73267423,-0.4827271093055548,0.0498546,0,0,156.49737673999485,156.27493348761217,75.32339628581585,74.52921428477289,74.92630528529438,157.1722217616333,111.62594379799084,45.54627796364244,2.847231474929164,1.412970332273232,mp-7559,7559
2671,Si2B2O5,8.19262314,-1.0155801337037036,0.0073555,0,0,162.24957152478274,158.36913309258932,52.553037594050714,67.39520621783363,59.97412190594217,157.1722217616333,111.62594379799084,45.54627796364244,2.847231474929164,1.412970332273232,mp-972793,972793
2672,Ba(AsPd)2,4.19365049,-0.7632649979999997,0.0001558,0,0,56.733999097696866,53.849501535735044,28.731820931115795,26.597279684997403,27.664550308056597,157.1722217616333,111.62594379799084,45.54627796364244,2.847231474929164,1.412970332273232,mp-8237,8237
2673,MnZnRh2,5.37096486,-0.30163440948275877,3.245362,1,1,168.41090432732494,168.41090432732491,76.19171469440383,44.05633791324121,60.12402630382252,157.1722217616333,111.62594379799084,45.54627796364244,2.847231474929164,1.412970332273232,mp-864987,864987
2674,GaN,3.4401233,-0.65681686875,0.0,0,0,171.71319361229305,171.71290638069271,106.83675089492253,104.10957914171779,105.47316501832016,10.860179653335564,4.913949990002228,5.946229663333334,2.4384892173912385,0.6194843056123386,mp-804,804
2675,Be2PdRh,5.84921451,-0.6506070975,0.000191,0,0,198.2933298477252,198.29332984772518,103.14995014905995,97.56517214476004,100.35756114691,157.1722217616333,111.62594379799084,45.54627796364244,2.847231474929164,1.412970332273232,mp-866115,866115
2676,SrGePt,4.62535485,-0.8975426163888885,0.00027605,0,0,68.14437826065574,68.14437826065577,20.32630325494846,17.409313063489904,18.86780815921918,157.1722217616333,111.62594379799084,45.54627796364244,2.847231474929164,1.412970332273232,mp-21164,21164
2677,V5Sb4,7.87905918,-0.21826562888888962,0.0592658,0,0,89.58116745718326,89.02819086812976,57.81908714121633,48.7046067140931,53.261846927654716,157.1722217616333,111.62594379799084,45.54627796364244,2.847231474929164,1.412970332273232,mp-30536,30536
2678,Na3AlF6,-1.58874473,-3.394868508965517,0.0,0,0,51.117683108302046,50.722793036494586,28.476813754846003,27.353853122896982,27.915333438871492,7.037718796666667,5.158035470000001,1.8796833266666668,1.3710154363342038,1.412970332273232,mp-3416,3416
2679,NaSi2N3,5.7120583,-1.2068158035919545,1.005e-05,0,0,185.963730481022,184.08757188985334,119.12131880300203,112.99818015333224,116.05974947816713,8.632997900000001,4.340528953333333,4.292468946666666,2.0718274413345013,0.4034379680942289,mp-8973,8973
2680,YPt3,6.37082788,-0.9691539091666668,0.003414,0,0,171.87760426622074,171.87760426622077,73.01714920223853,68.46342056830227,70.7402848852704,157.1722217616333,111.62594379799084,45.54627796364244,2.847231474929164,1.412970332273232,mp-2403,2403
2681,K2PtS2,2.70672237,-1.1332673064499992,5.47e-05,0,0,37.89694750858146,33.246567118166084,20.062023741662173,15.516245803250207,17.78913477245619,9.940057533246963,4.609555373247058,5.330502159999902,2.3087880283819695,1.412970332273232,mp-7928,7928
2682,Li2NiO2,3.1628273,-1.6050301393333335,1.9993708,1,1,93.60787047278993,82.70954511303792,44.1394234960172,31.536529363571063,37.83797642979413,157.1722217616333,111.62594379799084,45.54627796364244,2.847231474929164,1.412970332273232,mp-19183,19183
2683,BeP2,5.39644784,-0.3208304118055552,0.000101675,0,0,89.45050937575166,89.4477734420945,74.2835414181228,71.23078913455406,72.75716527633843,10.09021070680197,0.21815059347323953,9.87206011332873,3.141983468022824,1.412970332273232,mp-27148,27148
2684,LiVRh2,5.60887684,-0.4130521308333339,0.00392,0,0,178.7569474323409,178.7569474323409,81.94097745453631,81.74547247065682,81.84322496259657,345.5344083333336,48.19663043333339,297.33777790000016,17.243485085678017,1.412970332273232,mp-867829,867829
2685,SiRu,9.86658189,-0.6136125187500001,1.02e-05,0,0,204.46444795260854,204.4644479526085,105.52477592328924,93.16125734627516,99.3430166347822,61.08389574666668,16.646171326666664,44.43772442,6.666162645780554,1.30269,mp-189,189
2686,ZrNCl,2.50997242,-2.0903818983333338,1.955e-05,0,0,45.38956383211385,2.861165394277223,23.32686003080011,1.9148659133186992,12.620862972059404,157.1722217616333,111.62594379799084,45.54627796364244,2.847231474929164,1.412970332273232,mp-568592,568592
2687,In2Co,8.16168734,0.03264575416666619,0.0002969,0,0,88.86958747715397,88.20209737354594,29.76568743343453,23.43542549326265,26.60055646334859,157.1722217616333,111.62594379799084,45.54627796364244,2.847231474929164,1.412970332273232,mp-20296,20296
2688,Y2Mg,3.10365979,-0.06690345111111107,0.0008545,0,0,41.55379635673447,41.43266740528229,25.80772310463058,10.842245983330038,18.324984543980307,157.1722217616333,111.62594379799084,45.54627796364244,2.847231474929164,1.412970332273232,mp-865583,865583
2689,Mg3Pt,4.4467798,-0.5744776675000001,0.0001162,0,0,70.78995945291553,70.77456946289796,26.03415093281449,22.532457342109254,24.283304137461872,157.1722217616333,111.62594379799084,45.54627796364244,2.847231474929164,1.412970332273232,mp-569265,569265
2690,LiTiO2,6.38497225,-2.957393104166666,0.0405443,0,0,135.40492741025983,130.58493335508746,87.97125296919343,78.9961951795158,83.48372407435461,157.1722217616333,111.62594379799084,45.54627796364244,2.847231474929164,1.412970332273232,mp-25417,25417
2691,AlFe2Mo,8.00945093,-0.1760398875,0.87538,3,2,225.3101051711314,225.31010517113143,83.8635798676526,61.38002227017235,72.62180106891248,157.1722217616333,111.62594379799084,45.54627796364244,2.847231474929164,1.412970332273232,mp-672259,672259
2692,In3SbTe2,4.03587948,-0.31150499833333356,0.00463505,0,0,15.784428504465843,5.191505433698616,9.30265260327028,2.1361102646110557,5.719381433940668,157.1722217616333,111.62594379799084,45.54627796364244,2.847231474929164,1.412970332273232,mp-676518,676518
2693,MgV2O5,1.48686633,-2.6382909418750007,2.0005354,4,1,102.525445942914,98.49392111121031,43.587691964975086,33.07050060514813,38.32909628506161,157.1722217616333,111.62594379799084,45.54627796364244,2.847231474929164,1.412970332273232,mp-19003,19003
2694,Sc2O3,2.35704349,-3.9300005139999996,0.0001708,0,0,176.35786366262886,172.21968591116033,82.14131627078498,80.11000526487202,81.12566076782849,157.1722217616333,111.62594379799084,45.54627796364244,2.847231474929164,1.412970332273232,mp-755313,755313
2695,MgPd3,4.76732088,-0.48621333999999994,0.0002405,0,0,139.74289705908487,139.74289705908484,44.77029996352783,30.994465701784986,37.88238283265641,157.1722217616333,111.62594379799084,45.54627796364244,2.847231474929164,1.412970332273232,mp-7753,7753
2696,TiSnPd2,7.47071441,-0.6039056495833339,0.0001851,0,0,146.28697664399058,146.28697664399056,32.724325603043305,-68.41438474850567,-17.845029572731182,157.1722217616333,111.62594379799084,45.54627796364244,2.847231474929164,1.412970332273232,mp-865679,865679
2697,SrMg,2.07850751,-0.057828018333333286,0.0037385,0,0,19.07086731711305,19.07086731711305,13.412198132965607,8.185595772742456,10.798896952854031,157.1722217616333,111.62594379799084,45.54627796364244,2.847231474929164,1.412970332273232,mp-2564,2564
2698,AlTlSe2,3.10603358,-0.9806690182552078,0.0007336,0,0,26.258317494711378,23.785186128361076,14.60755515404194,12.317384032280774,13.462469593161357,61.41490313679171,53.12921982012504,8.285683316666665,2.878486289122577,1.412970332273232,mp-9579,9579
2699,ZnO2,2.7733007,-1.058444209166667,6.515e-05,0,0,143.8331976040082,143.83319760400818,62.19060829853428,61.763406810693965,61.97700755461412,10.795534213333331,6.614462019999998,4.181072193333335,2.0447670266642444,1.412970332273232,mp-8484,8484
2700,BaAl4,5.12808595,-0.24118236199999998,0.0003367,0,0,51.296744619861634,50.63179880947631,34.783215178272776,34.474829901128196,34.629022539700486,157.1722217616333,111.62594379799084,45.54627796364244,2.847231474929164,1.412970332273232,mp-1903,1903
2701,Si2Ni6B,9.20695726,-0.46313584768518407,0.0070417,0,0,213.28509871071114,206.432910174056,88.34219670060493,65.36934285450158,76.85576977755326,157.1722217616333,111.62594379799084,45.54627796364244,2.847231474929164,1.412970332273232,mp-4720,4720
2702,Y2Pd2Pb,5.20022736,-0.8402324656666664,0.0285884,0,0,82.61493669560349,82.37101180293499,29.74244959425939,28.781965566566722,29.262207580413055,157.1722217616333,111.62594379799084,45.54627796364244,2.847231474929164,1.412970332273232,mp-21508,21508
2703,CeIn3,7.91456735,-0.4035666287499997,0.6244861,1,1,48.81387557784171,48.81387557784172,34.44382853898081,33.9310798294467,34.187454184213756,157.1722217616333,111.62594379799084,45.54627796364244,2.847231474929164,1.412970332273232,mp-20369,20369
2704,Na(WO3)2,3.29663499,-2.1767651118390807,0.9999973,2,1,181.74548010031356,177.63639246097338,118.79222645117193,90.0202267755816,104.40622661337676,157.1722217616333,111.62594379799084,45.54627796364244,2.847231474929164,1.412970332273232,mp-690535,690535
2705,CaFeO2,4.72495289,-2.3024049675000002,3.9998622,1,1,118.6005946146146,100.83189148923123,69.32202703472494,40.17760704776249,54.749817041243716,157.1722217616333,111.62594379799084,45.54627796364244,2.847231474929164,1.412970332273232,mp-19842,19842
2706,InGaTe2,4.84216734,-0.502595328125,4.9e-06,0,0,23.07696293085855,21.76350270574081,13.419920240234907,12.74202893937338,13.080974589804143,157.1722217616333,111.62594379799084,45.54627796364244,2.847231474929164,1.412970332273232,mp-20408,20408