,formula_pretty,efermi,formation_energy_per_atom,total_magnetization_normalized_formula_units,num_magnetic_sites,num_unique_magnetic_sites,k_voigt,k_reuss,g_voigt,g_reuss,g_vrh,e_total,e_ionic,e_electronic,n,e_ij_max,material_id,b
1320,YTe,6.54196047,-1.5186599833333334,0.0004847,0,0,60.10865172851782,60.10865172851784,30.311094161421327,10.560729467726906,20.435911814574116,157.1722217616333,111.62594379799084,45.54627796364244,2.847231474929164,1.412970332273232,mp-1708,1708
1321,Na2CoP2O7,0.92312597,-2.4692110095641766,3.0001206,4,1,44.501419606720376,39.60431574343625,25.748367543757393,23.787208556838323,24.76778805029786,157.1722217616333,111.62594379799084,45.54627796364244,2.847231474929164,1.412970332273232,mp-1011860,1011860
1322,CdCu2GeSe4,3.04814319,-0.5754954092968747,0.0001179,0,0,56.88962031720809,56.81765603492058,24.649001832880863,21.0541655973383,22.851583715109584,21.99561448333333,3.3098455199999997,18.685768963333334,4.3227038949404495,0.05588000000000004,mp-10967,10967
1323,Li2CuP,4.45285012,-0.5642857712499998,0.0001206,0,0,63.99218472505018,56.92108010773287,47.901233232398,43.14208584685162,45.52165953962481,157.1722217616333,111.62594379799084,45.54627796364244,2.847231474929164,1.412970332273232,mp-12029,12029
1324,Ni,-0.91740278,0.6202391299999999,0.67364825,2,1,33.82968444113099,1.335792351627908,21.42327493227456,-0.25197987727791876,10.58564752749832,157.1722217616333,111.62594379799084,45.54627796364244,2.847231474929164,1.412970332273232,mp-1014111,1014111
1325,Ga,2.67472677,0.024173172500000284,0.0001276,0,0,49.377988307449215,49.35468493012872,7.474417855147248,5.214680555297158,6.344549205222203,157.1722217616333,111.62594379799084,45.54627796364244,2.847231474929164,1.412970332273232,mp-140,140
1326,ScTlSe2,4.57843047,-1.4887621707552077,7.89e-05,0,0,40.98685141083934,40.90396882429145,25.90354062123986,23.332181042634595,24.61786083193723,30.857721566606685,21.006009369940013,9.851712196666673,3.1387437290525444,1.412970332273232,mp-13313,13313
1327,AgSbTe2,5.7735623,-0.277489244166667,0.0003447,0,0,49.9520567703808,49.63414333323874,18.683641760583075,16.646224481097875,17.664933120840473,157.1722217616333,111.62594379799084,45.54627796364244,2.847231474929164,1.412970332273232,mp-12360,12360
1328,VC,8.05075397,-0.4106154199999992,0.0008287,0,0,306.7586452068869,306.7586452068868,205.48713842247864,202.79950228975193,204.14332035611528,157.1722217616333,111.62594379799084,45.54627796364244,2.847231474929164,1.412970332273232,mp-1282,1282
1329,Rb2Pd3S4,2.01483534,-0.9493430341666674,4.6e-06,0,0,23.904573056215483,16.739684865076132,8.195018255028009,5.227810102275378,6.711414178651694,14.167278441882798,6.93356143363316,7.233717008249637,2.68955702825756,1.412970332273232,mp-11695,11695
1330,Li2ZnSn,4.71879491,-0.27378994541666657,0.0005914,0,0,37.57849493249114,37.57849493249113,29.575066621924254,10.176842478752276,19.875954550338264,157.1722217616333,111.62594379799084,45.54627796364244,2.847231474929164,1.412970332273232,mp-11490,11490
1331,Zr2Fe,4.44048855,-0.137636435000001,0.00302495,0,0,124.58884735812269,123.94106335405971,35.16403512702708,29.738670033056344,32.451352580041714,157.1722217616333,111.62594379799084,45.54627796364244,2.847231474929164,1.412970332273232,mp-1159,1159
1332,HfRh3,6.77194134,-0.7463878449999992,0.0024915,0,0,219.0499118706604,219.04991187066045,121.40061223714227,111.20933962943828,116.30497593329028,157.1722217616333,111.62594379799084,45.54627796364244,2.847231474929164,1.412970332273232,mp-1027,1027
1333,Al(CoSi)2,9.14765148,-0.5105188460000001,0.0079816,0,0,177.25205032589693,173.69284341216792,98.56436173434295,93.94672471208774,96.25554322321534,157.1722217616333,111.62594379799084,45.54627796364244,2.847231474929164,1.412970332273232,mp-10010,10010
1334,Sr4ZrN4,2.4465612,-1.0836755107407414,7e-06,0,0,72.50104049679457,68.55260951460434,32.26675775109129,25.421482819629937,28.844120285360614,17.197338110000004,10.909303206666669,6.288034903333334,2.5075954425172604,1.412970332273232,mp-1029580,1029580
1335,YNiSb,6.58644604,-0.9636055455555557,0.0001414,0,0,93.99898738655162,93.99898738655163,56.15556208277802,54.16265792530765,55.15911000404283,21.647747369892503,2.955558329892504,18.692189040000002,4.323446430800317,0.41958296907930104,mp-11520,11520
1336,CaAl9Co2,6.63072727,-0.37827172416666716,0.0194442,0,0,84.73406046908546,84.27502086137335,56.34710356488383,55.40541817641587,55.87626087064985,157.1722217616333,111.62594379799084,45.54627796364244,2.847231474929164,1.412970332273232,mp-11350,11350
1337,Ca6MnN5,3.75432718,-1.0015992410775876,2.000359,2,1,76.61878652331302,76.57332059617265,39.61970152655761,36.411655750320655,38.015678638439134,15.523891786668372,8.781352983335083,6.742538803333289,2.596639906366166,1.412970332273232,mp-17577,17577
1338,Cu3Pt,6.52896469,-0.13895371,0.0001475,0,0,159.3213528393323,159.3213528393323,58.597794471658354,44.9724470080794,51.78512073986887,157.1722217616333,111.62594379799084,45.54627796364244,2.847231474929164,1.412970332273232,mp-12086,12086
1339,NbSi2,8.7813181,-0.5019119911111116,0.0008655,0,0,175.66609037949496,173.4894897198445,140.91950801783963,139.79468257373816,140.3570952957889,157.1722217616333,111.62594379799084,45.54627796364244,2.847231474929164,1.412970332273232,mp-12104,12104
1340,CaAl2O4,2.13162369,-3.452869487142858,0.0,0,0,79.19602380085517,68.9200158544491,45.23168272454635,41.77445257581527,43.50306765018081,157.1722217616333,111.62594379799084,45.54627796364244,2.847231474929164,1.412970332273232,mp-14600,14600
1341,Sn,7.55670699,0.05425683499999989,0.0008963,0,0,40.02820688571137,40.02820688571134,9.972722921876684,-15.44092715988899,-2.7341021190061525,157.1722217616333,111.62594379799084,45.54627796364244,2.847231474929164,1.412970332273232,mp-1022725,1022725
1342,RbTiS2,4.67592025,-1.5205495867708336,1.000655,1,1,52.45173943308065,52.038848961604955,31.013015884731967,30.32197548876416,30.66749568674806,157.1722217616333,111.62594379799084,45.54627796364244,2.847231474929164,1.412970332273232,mp-16318,16318
1343,SrCuP,5.20165452,-0.8190151116666667,0.00052735,0,0,67.48717145910405,65.45243776604833,47.34526493885179,45.44219215811586,46.39372854848382,157.1722217616333,111.62594379799084,45.54627796364244,2.847231474929164,1.412970332273232,mp-16321,16321
1344,SrCuSb,5.36824758,-0.7663152038888891,0.0010246,0,0,49.96031586434838,45.23654435732975,34.549970192267956,32.77589831455331,33.66293425341063,157.1722217616333,111.62594379799084,45.54627796364244,2.847231474929164,1.412970332273232,mp-10749,10749
1345,ScAg,4.10499838,-0.2870132158333334,0.0023283,0,0,82.13750116462275,82.13750116462273,34.89860832554929,29.754853677450516,32.3267310014999,157.1722217616333,111.62594379799084,45.54627796364244,2.847231474929164,1.412970332273232,mp-11237,11237
1346,SbPt7,8.1595589,-0.09400805124999945,0.0045365,0,0,210.3121186114639,210.31211861146392,35.58564029531443,28.561401151771843,32.07352072354313,157.1722217616333,111.62594379799084,45.54627796364244,2.847231474929164,1.412970332273232,mp-1030,1030
1347,YAlNi,5.76641317,-0.6009806288888895,0.0001617,0,0,93.20984240629431,90.92856801499069,37.30813208471315,14.872594537953649,26.090363311333398,157.1722217616333,111.62594379799084,45.54627796364244,2.847231474929164,1.412970332273232,mp-13095,13095
1348,MoO3,0.38758505,-1.9146040256249997,6.215e-05,0,0,38.85594594582912,36.519094940454984,32.130236973831245,21.41693302988285,26.773585001857047,157.1722217616333,111.62594379799084,45.54627796364244,2.847231474929164,1.412970332273232,mp-1445089,1445089
1349,Zr2SeN2,5.05839283,-1.7943417964687511,0.0003881,0,0,147.92545663765227,147.03676938160783,76.24190390271305,73.11842434521083,74.68016412396193,26.490599046667427,15.60773122666743,10.88286782,3.298919189674097,1.412970332273232,mp-1029337,1029337
1350,AlGa3N4,3.97175249,-0.8773966390624999,0.0003396,0,0,177.6140505791909,177.6140505791909,116.974768394396,97.29897630177327,107.13687234808464,10.154615396666669,4.597641116666666,5.556974280000002,2.3573235416463314,0.23518999999999998,mp-1019508,1019508
1351,Li2GeN2,2.23577048,-0.5689553748333338,0.000165625,0,0,90.50945446048831,80.06731521804996,50.659249043264616,27.235706725366864,38.94747788431574,27.578490430000002,22.684035393333332,4.894455036666666,2.2123415280346443,1.412970332273232,mp-1029776,1029776
1352,CeAu,6.58663754,-0.6411649174999994,0.9694872,2,1,67.58537126533402,65.04710492717425,21.09875013236148,15.230059352556808,18.164404742459144,157.1722217616333,111.62594379799084,45.54627796364244,2.847231474929164,1.412970332273232,mp-1018087,1018087
1353,K(CoS)2,4.64839828,-0.8278480678500003,2.0214741,2,1,45.216470623436166,41.48266769915556,33.25040487209154,28.26073532571196,30.75557009890175,157.1722217616333,111.62594379799084,45.54627796364244,2.847231474929164,1.412970332273232,mp-12079,12079
1354,ZrHg3,3.76446507,-0.06614590125000008,0.0038662,0,0,81.52623068390257,81.52623068390236,24.402623010844408,-1.38576732888464,11.508427840979884,157.1722217616333,111.62594379799084,45.54627796364244,2.847231474929164,1.412970332273232,mp-1608,1608
1355,ZrRu3C,7.78904207,-0.32684769299999916,2.7e-06,0,0,256.8742513022787,256.87425130227876,158.5272094144518,155.56748477257466,157.04734709351322,157.1722217616333,111.62594379799084,45.54627796364244,2.847231474929164,1.412970332273232,mp-10706,10706
1356,CaGeN2,5.35056871,-0.6049367824999994,0.0088339,0,0,127.2408791371274,126.63828867874636,64.18944898628779,293.5320911623216,178.8607700743047,157.1722217616333,111.62594379799084,45.54627796364244,2.847231474929164,1.412970332273232,mp-1029446,1029446
1357,AuN,4.25208584,1.5102571624999994,0.0007079,0,0,172.47254332211347,172.4725433221134,31.702993054575312,30.30888357627775,31.005938315426533,157.1722217616333,111.62594379799084,45.54627796364244,2.847231474929164,1.412970332273232,mp-1008610,1008610
1358,Rb2Se,-0.33520508,-1.20728777578125,3.61e-05,0,0,13.896562315692519,13.896562315692519,6.951583179310471,6.674787796521288,6.813185487915879,6.7940622396443855,3.479402959775355,3.31465927986903,1.8206205754821705,1.412970332273232,mp-11327,11327
1359,CoGe,7.92087757,-0.21165486499999986,1.36e-05,0,0,157.33694236304126,157.33694236304123,76.90277682146554,75.47427801668451,76.18852741907503,157.1722217616333,111.62594379799084,45.54627796364244,2.847231474929164,1.412970332273232,mp-10692,10692
1360,Sc2Al3Ru,6.37785444,-0.6516310758333326,0.01214515,0,0,112.29214246107693,111.60568394759616,68.45767027883798,66.43002910825787,67.44384969354792,157.1722217616333,111.62594379799084,45.54627796364244,2.847231474929164,1.412970332273232,mp-10911,10911
1361,K2CuAs,1.65357036,-0.3482022652500003,9.42e-05,0,0,21.273456593753938,20.739558407226,11.726535237517059,7.6805930726663,9.70356415509168,12.710231213535417,5.809545430202103,6.900685783333313,2.626915640696007,1.412970332273232,mp-15684,15684
1362,WN,9.26771229,-0.18025087000000006,0.00012015,0,0,342.2065347744399,313.88811305190444,153.6063623937257,140.04041111383037,146.82338675377804,157.1722217616333,111.62594379799084,45.54627796364244,2.847231474929164,1.412970332273232,mp-1430706,1430706
1363,InBi,3.64626493,0.0247753399999997,0.0016612,0,0,30.742473142730304,30.742473142730297,14.446704969178535,12.742680478964685,13.59469272407161,157.1722217616333,111.62594379799084,45.54627796364244,2.847231474929164,1.412970332273232,mp-1001833,1001833
1364,Zr3(Cu2Ge)2,6.32539929,-0.484777212222222,0.003312,0,0,132.84840682813416,132.56165953307192,74.21594733777277,67.91852473006864,71.06723603392071,157.1722217616333,111.62594379799084,45.54627796364244,2.847231474929164,1.412970332273232,mp-15985,15985
1365,Ba(BeN)2,2.85421069,-1.108668195,7.2e-06,0,0,105.8285843783687,90.8866938268843,68.81309458079247,53.50702927948448,61.16006193013847,15.39692579335636,9.76582095335636,5.631104839999999,2.372994909391927,1.412970332273232,mp-12927,12927
1366,BaAl9Fe2,6.012986,-0.3166822558333333,0.0618374,0,0,79.40971112726463,79.19168704130158,47.97993835964105,42.09113635856823,45.03553735910464,157.1722217616333,111.62594379799084,45.54627796364244,2.847231474929164,1.412970332273232,mp-16483,16483
1367,ZnS,1.90769514,-1.0628694815625002,0.0001603,0,0,68.2530652721109,68.2530652721109,35.66119348147568,30.66780524704235,33.164499364259015,9.364281006666658,3.4606814366666643,5.903599569999994,2.4297324070769593,0.05316000000000007,mp-10695,10695
1368,MnAlPd2,6.08587675,-0.5930342794827581,4.0352245,1,1,141.40447883394867,141.40447883394864,49.59585004199972,17.9946080430235,33.79522904251161,157.1722217616333,111.62594379799084,45.54627796364244,2.847231474929164,1.412970332273232,mp-10891,10891
1369,ZrZnN2,3.73142615,-1.0446600050000008,0.0004845,0,0,177.48480021610084,177.0879972925857,84.80587217650604,73.84713309035621,79.32650263343112,43.587700510001646,34.506264100001644,9.08143641,3.013542169938891,3.278595488756115,mp-1014244,1014244
1370,Ba2MnTe3,3.41640199,-1.4603631163218391,5.000279925,4,1,28.706719952175337,28.371388805087395,15.571239647096947,14.82568810212532,15.198463874611132,157.1722217616333,111.62594379799084,45.54627796364244,2.847231474929164,1.412970332273232,mp-16905,16905
1371,Sc3TlB,4.68060481,-0.3566117194999997,0.0002718,0,0,73.83149172908425,73.83149172908426,54.4865358475765,53.65654231276923,54.07153908017287,157.1722217616333,111.62594379799084,45.54627796364244,2.847231474929164,1.412970332273232,mp-10140,10140
1372,Mg2Au,4.55186181,-0.44220205805555546,0.002895736111111111,0,0,61.92173120291214,54.911280618117075,23.602787043254523,21.483782352131968,22.543284697693245,157.1722217616333,111.62594379799084,45.54627796364244,2.847231474929164,1.412970332273232,mp-11250,11250
1373,BaCuF4,0.930292,-2.9994217608333336,1.00554365,2,1,56.72817731926383,50.70253180698073,21.25234942008669,17.740564663118903,19.496457041602795,157.1722217616333,111.62594379799084,45.54627796364244,2.847231474929164,1.412970332273232,mp-12268,12268
1374,Cr3Fe,6.81706069,0.25940744999999943,0.0069189,0,0,253.03808030939587,253.03808030939544,57.47834873874447,11.49978712537644,34.48906793206046,157.1722217616333,111.62594379799084,45.54627796364244,2.847231474929164,1.412970332273232,mp-1008285,1008285
1375,Cs2Pd3Se4,1.81976911,-0.9538089416930072,0.0002102,0,0,18.769311543511495,10.88620668390734,7.371011675704417,3.1282189696713187,5.249615322687868,10.868977171063179,4.013430690725407,6.855546480337773,2.618309851858212,1.412970332273232,mp-11694,11694
1376,FeNi3,7.50050958,-0.08976254499999925,4.7135299,4,2,203.1086284534209,203.10862845342083,102.78953815244209,89.62430447657333,96.20692131450771,157.1722217616333,111.62594379799084,45.54627796364244,2.847231474929164,1.412970332273232,mp-1418,1418
1377,AlSb,5.6868555,-0.1384959218749997,0.003483,0,0,48.89332543883619,48.89332543883619,30.45728551755234,30.422932472224073,30.440108994888206,157.1722217616333,111.62594379799084,45.54627796364244,2.847231474929164,1.412970332273232,mp-15621,15621
1378,Be12Cr,4.72214929,-0.050614865384615154,0.0023639,0,0,128.45312267026273,128.2648426772911,145.84756941387846,143.64340680316243,144.74548810852045,157.1722217616333,111.62594379799084,45.54627796364244,2.847231474929164,1.412970332273232,mp-1590,1590
1379,CoCu2SnS4,5.17269539,-0.5631033665625003,2.9503626,3,2,71.74119124392998,71.67549292105642,29.203758130748245,25.197650161049797,27.20070414589902,157.1722217616333,111.62594379799084,45.54627796364244,2.847231474929164,1.412970332273232,mp-11770,11770
1380,TiAs,6.40644652,-0.9061694191666669,0.10929545,0,0,118.17547753684751,114.0579048812849,71.58699734350384,57.33144625659941,64.45922180005162,157.1722217616333,111.62594379799084,45.54627796364244,2.847231474929164,1.412970332273232,mp-10052,10052
1381,ScCu,5.39443608,-0.2807952775000002,0.0015108,0,0,81.15639035620451,81.1563903562045,43.52475225599963,42.06891853849298,42.796835397246305,157.1722217616333,111.62594379799084,45.54627796364244,2.847231474929164,1.412970332273232,mp-1169,1169
1382,Sb2Pt3,8.07847022,-0.3607295339999993,1e-06,0,0,135.73737969293677,134.81463855997802,39.02080116021075,14.33687688947633,26.67883902484354,157.1722217616333,111.62594379799084,45.54627796364244,2.847231474929164,1.412970332273232,mp-15659,15659
1383,VRh3,7.27151608,-0.36499331999999995,0.0019191,0,0,250.71768065163027,250.71768065163013,162.1921295015327,152.16955855673575,157.18084402913422,157.1722217616333,111.62594379799084,45.54627796364244,2.847231474929164,1.412970332273232,mp-1185,1185
1384,CaSn2Pd,6.90228893,-0.6663131699999996,1.445e-05,0,0,60.801616077043036,59.21312555136304,25.588863636946197,21.300178387100075,23.444521012023138,157.1722217616333,111.62594379799084,45.54627796364244,2.847231474929164,1.412970332273232,mp-11958,11958
1385,YTiGe,5.02352153,-0.6843872599999999,1.5984404,4,2,84.53249996633794,84.457868173268,56.538963597272556,48.92170290231799,52.73033324979527,157.1722217616333,111.62594379799084,45.54627796364244,2.847231474929164,1.412970332273232,mp-10455,10455
1386,Ti3Te4,7.22397722,-0.9595486614285724,0.0858585,0,0,59.97119603589743,59.12088770204243,40.56836702570822,34.7703734667897,37.66937024624896,157.1722217616333,111.62594379799084,45.54627796364244,2.847231474929164,1.412970332273232,mp-15669,15669
1387,Ba(CuSe)2,4.78954898,-1.0369736029374998,0.0004139,0,0,54.06893524271162,54.06779582118619,22.542598914956237,18.72568860475543,20.63414375985583,157.1722217616333,111.62594379799084,45.54627796364244,2.847231474929164,1.412970332273232,mp-10437,10437
1388,Zr3Au,4.49585304,-0.34749160125000067,0.0514421,0,0,118.4344644478656,118.4344644478656,54.78564854781934,48.7813666833456,51.78350761558247,157.1722217616333,111.62594379799084,45.54627796364244,2.847231474929164,1.412970332273232,mp-11263,11263
1389,Cr5B3,7.83437859,-0.4156522671874985,0.0001072,0,0,291.0944215979043,290.99635921816224,196.17431527973633,194.85919934275722,195.51675731124678,157.1722217616333,111.62594379799084,45.54627796364244,2.847231474929164,1.412970332273232,mp-15617,15617
1390,NaLi2N,2.57768296,-0.028544154554598133,0.000144,0,0,59.34265124790061,59.342651247900626,5.234033254021654,-41.8363199126722,-18.301143329325274,157.1722217616333,111.62594379799084,45.54627796364244,2.847231474929164,1.412970332273232,mp-10525,10525
1391,Ba(AlSi)2,5.20493012,-0.2606747260000006,0.0001035,0,0,48.07235872257672,36.05168755685228,27.011984193461842,18.059797309710174,22.53589075158601,157.1722217616333,111.62594379799084,45.54627796364244,2.847231474929164,1.412970332273232,mp-12863,12863
1392,TiRh3,7.32210152,-0.6179574708333337,0.0040556,0,0,230.48503153653454,230.4850315365345,135.03648220536832,123.20064780601338,129.11856500569084,157.1722217616333,111.62594379799084,45.54627796364244,2.847231474929164,1.412970332273232,mp-1152,1152
1393,Sb2Te3,6.00628528,-0.38320282399999994,0.000158,0,0,23.244227375117976,13.426826078330736,15.942490265268535,10.549024000849775,13.245757133059154,127.48275872975948,83.26506346976036,44.2176952599991,6.649638731540165,1.412970332273232,mp-1201,1201
1394,MgZnAg2,3.75110353,-0.165332985833333,0.0007553,0,0,75.95487918930476,75.95487918930485,31.994627593424916,5.00497302491505,18.499800309169984,157.1722217616333,111.62594379799084,45.54627796364244,2.847231474929164,1.412970332273232,mp-11236,11236
1395,ScGaCu2,5.57597861,-0.3811806931249997,0.0001164,0,0,105.70200979212886,105.70200979212885,39.848478407201036,20.423200417397403,30.13583941229922,157.1722217616333,111.62594379799084,45.54627796364244,2.847231474929164,1.412970332273232,mp-11360,11360
1396,ScAl2Ni,6.79041243,-0.6569232937500002,0.0002821,0,0,107.11931213110286,106.45599992770357,67.38187963360733,60.73156524977378,64.05672244169055,157.1722217616333,111.62594379799084,45.54627796364244,2.847231474929164,1.412970332273232,mp-12781,12781