,formula_pretty,efermi,formation_energy_per_atom,total_magnetization_normalized_formula_units,num_magnetic_sites,num_unique_magnetic_sites,k_voigt,k_reuss,g_voigt,g_reuss,g_vrh,e_total,e_ionic,e_electronic,n,e_ij_max,material_id,b
3635,NiGePt2,8.17006059,-0.3318706437499994,8.28e-05,0,0,198.6939709048779,194.07842429908735,62.62457201142238,56.250311672257986,59.43744184184018,157.1722217616333,111.62594379799084,45.54627796364244,2.847231474929164,1.412970332273232,mp-29752,29752
3636,CeBr3,3.27713153,-2.2627455456249996,0.9999997,2,1,26.730867973759242,16.574204878952838,13.569881660026072,9.302796401327052,11.436339030676562,157.1722217616333,111.62594379799084,45.54627796364244,2.847231474929164,1.412970332273232,mp-569850,569850
3637,V2O3,5.58076417,-2.5258905190000007,6e-07,4,1,202.25519921372222,202.10212239253883,80.78702586866213,79.68713281156319,80.23707934011266,157.1722217616333,111.62594379799084,45.54627796364244,2.847231474929164,1.412970332273232,mp-18937,18937
3638,Mg(AlC)2,7.01832483,-0.06273040000000023,0.0010349,0,0,137.29500072988563,130.53114169006187,104.604334560657,76.9991936652962,90.8017641129766,157.1722217616333,111.62594379799084,45.54627796364244,2.847231474929164,1.412970332273232,mp-9514,9514
3639,InS,4.57303829,-0.7428954078124996,0.000106775,0,0,27.414804829134,12.651933079611048,19.15333370571277,10.405615622178157,14.779474663945464,15.164000623333335,6.389736293333335,8.774264330000001,2.962138472455331,1.412970332273232,mp-19795,19795
3640,Li3P,1.69743034,-0.6965688783333333,0.00207095,0,0,39.91151148009869,39.81551154492237,35.58679273167488,32.585314331043094,34.086053531358985,11.410247835620714,4.536084373491153,6.8741634621295615,2.6218625940597193,1.412970332273232,mp-736,736
3641,LiScAu2,4.2143843,-0.6956562670833328,0.0001524,0,0,81.86717587580569,81.86717586473394,11.95898689154813,2.1849828211448425,7.071984856346487,157.1722217616333,111.62594379799084,45.54627796364244,2.847231474929164,1.412970332273232,mp-862815,862815
3642,Na(Cu3O4)2,2.4520785,-1.0074803997701147,0.034687,0,0,119.18333176797553,119.18333176797552,36.251929804271064,36.181832512425316,36.21688115834819,157.1722217616333,111.62594379799084,45.54627796364244,2.847231474929164,1.412970332273232,mp-758835,758835
3643,As2Pt,6.16536856,-0.5176526591666661,0.0,0,0,137.49234112199522,137.49234112199522,85.83046347292705,79.58221235015435,82.7063379115407,157.1722217616333,111.62594379799084,45.54627796364244,2.847231474929164,1.412970332273232,mp-2513,2513
3644,LiVO2,5.02913729,-2.4937810420833335,1.6e-06,2,1,122.99234884298681,117.2002676685284,68.22712860975048,56.14271394102897,62.184921275389726,14.423888440038724,9.623507956705389,4.800380483333334,2.190977061343485,1.412970332273232,mp-19340,19340
3645,K2SnCl6,-0.39954782,-1.8569887167777779,0.0002385,0,0,11.858436675557634,11.858436675557634,6.130991822173415,5.955911100478802,6.043451461326109,16.439893613338548,13.683220673338576,2.756672939999973,1.6603231432465106,1.412970332273232,mp-23499,23499
3646,BaZnF4,-1.18693553,-3.3938069125,0.00070615,0,0,59.87978936627941,53.644197525744495,24.7065907880929,21.695895458404518,23.20124312324871,25.15932208,22.658932726666666,2.500389353333334,1.5812619496254674,1.51717,mp-3881,3881
3647,NbNi2Sn,9.04703614,-0.19618542375000025,0.0027487,0,0,178.41038516652432,178.4103851664319,47.28221126622004,12.608448226478611,29.945329746349323,157.1722217616333,111.62594379799084,45.54627796364244,2.847231474929164,1.412970332273232,mp-3504,3504
3648,MnNiSb,7.85258082,-0.2709623626436783,4.0009249,2,2,109.19242928220507,109.19242928220507,46.54050079575058,45.106737503053935,45.82361914940226,157.1722217616333,111.62594379799084,45.54627796364244,2.847231474929164,1.412970332273232,mp-600124,600124
3649,ZrTe3,5.38627769,-1.0331436912500003,2.06e-05,0,0,26.441717908000708,15.119833560180073,15.315458066737602,5.037305144514189,10.176381605625895,157.1722217616333,111.62594379799084,45.54627796364244,2.847231474929164,1.412970332273232,mp-2089,2089
3650,Ba(FeS2)2,4.09525186,-1.1507141889285717,1.9475096,2,1,42.89930704406742,38.33494552265988,23.016036481638828,14.850174026147476,18.933105253893153,157.1722217616333,111.62594379799084,45.54627796364244,2.847231474929164,1.412970332273232,mp-27660,27660
3651,Mg2Ge,3.57484516,0.2142613450000003,1.455e-05,0,0,41.524992326723805,41.524992326723826,16.46133121571657,9.476751253821185,12.969041234768877,157.1722217616333,111.62594379799084,45.54627796364244,2.847231474929164,1.412970332273232,mp-250,250
3652,MnNiGe,7.47363299,-0.25920189931034443,2.98717985,8,2,145.6564430141195,142.33582478944754,63.64614260850737,56.044886242038636,59.845514425273,157.1722217616333,111.62594379799084,45.54627796364244,2.847231474929164,1.412970332273232,mp-20007,20007
3653,BiPd2Pb,6.66827211,-0.2934874925000006,0.00011225,0,0,84.5946771231704,84.12778769590126,24.41929956050999,22.577210233253176,23.498254896881583,157.1722217616333,111.62594379799084,45.54627796364244,2.847231474929164,1.412970332273232,mp-30461,30461
3654,Cu3P,8.41579258,-0.020021717499999998,0.00344415,0,0,123.5284493256601,123.36326266967636,41.06463533113241,39.88703786657354,40.47583659885298,157.1722217616333,111.62594379799084,45.54627796364244,2.847231474929164,1.412970332273232,mp-7463,7463
3655,NbS2,-3.00161191,-1.340971712083333,0.9641002,1,1,14.477936840149734,-0.42098369946083225,8.012865231637543,-0.38137116092539275,3.815747035356075,157.1722217616333,111.62594379799084,45.54627796364244,2.847231474929164,1.412970332273232,mp-555293,555293
3656,RbNiCl3,1.42430059,-1.5515030134999996,1.9999896,2,1,18.13010807294636,17.29146490606208,7.782855828336347,2.593611517536367,5.188233672936357,10.279094026678832,6.777878586678834,3.501215439999999,1.871153505194055,1.412970332273232,mp-23486,23486
3657,BaTiO3,2.74367079,-3.4922378096666664,1.61e-05,0,0,95.78140899813535,94.37644562335373,65.08070101864811,25.00505778723767,45.042879402942894,32.542030936704876,26.965004436704874,5.577026500000002,2.361572886870105,4.540352944794141,mp-5020,5020
3658,SnF4,-0.93525806,-2.7095145449999998,1.98e-05,0,0,56.1593635663996,15.226255798743022,42.21079830698984,17.962263504871995,30.086530905930914,8.021506608329824,5.637031291082921,2.3844753172469026,1.5441746394909168,1.412970332273232,mp-2706,2706
3659,TiF3,1.80170363,-3.6713244152083337,0.9999492,1,1,103.68422319567804,103.68422319567803,59.21263050215307,31.007617349765855,45.11012392595946,157.1722217616333,111.62594379799084,45.54627796364244,2.847231474929164,1.412970332273232,mp-246,246
3660,TlCuF3,2.17615923,-1.9032640121666664,1.0003056,1,1,66.77890595493749,66.77890595493749,25.26886985931567,22.85135771756823,24.060113788441953,157.1722217616333,111.62594379799084,45.54627796364244,2.847231474929164,1.412970332273232,mp-554973,554973
3661,Nb3Sb,6.95081724,-0.3254188824999993,0.00022775,0,0,173.94328426590704,173.9432842659071,84.14927949740078,80.46756687603849,82.30842318671964,157.1722217616333,111.62594379799084,45.54627796364244,2.847231474929164,1.412970332273232,mp-2053,2053
3662,Mg2AgAu,4.91794997,-0.44367547416666664,0.0016666,0,0,72.6864211055731,72.68642110557313,36.27484270205014,26.055434699632077,31.165138700841105,157.1722217616333,111.62594379799084,45.54627796364244,2.847231474929164,1.412970332273232,mp-864978,864978
3663,Y2Zn17,3.12427632,-0.24928883754385972,7.41e-05,0,0,80.73924823500244,80.7188936327957,51.1102069661359,50.560834381916926,50.83552067402641,157.1722217616333,111.62594379799084,45.54627796364244,2.847231474929164,1.412970332273232,mp-17639,17639
3664,ScSe,6.26959741,-1.8248868936718745,0.0026589,0,0,80.51432054547188,80.51432054547186,44.367876303445115,29.31499473866509,36.841435521055104,157.1722217616333,111.62594379799084,45.54627796364244,2.847231474929164,1.412970332273232,mp-1782,1782
3665,HfGePt,7.40302508,-0.9025588916666673,3.55e-06,0,0,177.5329070775075,176.13342623913783,79.77711930127948,78.03709315111591,78.9071062261977,157.1722217616333,111.62594379799084,45.54627796364244,2.847231474929164,1.412970332273232,mp-21340,21340
3666,TiSiRh,7.74143279,-0.9466066219444436,3.4525e-05,0,0,187.8460322007581,186.2933041196768,90.19497412237415,86.57783527060944,88.3864046964918,157.1722217616333,111.62594379799084,45.54627796364244,2.847231474929164,1.412970332273232,mp-672645,672645
3667,AlNi3,8.50778329,-0.4340954649999995,0.735875,3,1,179.50781271043275,179.50780089480855,95.3253498767273,73.37632657583593,84.35083822628161,157.1722217616333,111.62594379799084,45.54627796364244,2.847231474929164,1.412970332273232,mp-2593,2593
3668,Ca(MgAs)2,3.5738012,-0.9421022619999995,7.72e-05,0,0,49.987217712338435,49.30347790422988,35.693854573505206,35.48501971538121,35.58943714444321,16.28298306666581,7.204055576665812,9.078927490000003,3.013125866936196,1.412970332273232,mp-9564,9564
3669,MnAlCo2,6.61087155,-0.36919633698275867,4.0057951,3,2,191.796037740754,191.796037740754,114.09755561386497,93.95913594023999,104.02834577705248,157.1722217616333,111.62594379799084,45.54627796364244,2.847231474929164,1.412970332273232,mp-3623,3623
3670,Cu2SiTe3,5.42793076,-0.28455657833333287,0.00064885,0,0,52.07992954771035,52.05983134817388,26.517031003249425,23.41290867458215,24.96496983891579,157.1722217616333,111.62594379799084,45.54627796364244,2.847231474929164,1.412970332273232,mp-675120,675120
3671,Li3SbS4,3.36391178,-1.0378283690625003,0.0009896,0,0,39.11779784688997,38.6982268636112,26.125296125019137,24.439682928313324,25.282489526666232,157.1722217616333,111.62594379799084,45.54627796364244,2.847231474929164,1.412970332273232,mp-752426,752426
3672,Sr3MnN3,3.76546089,-0.872376161847291,0.0437715,2,1,54.814225136994416,50.43546203011991,31.982077402917827,31.352320203959376,31.667198803438602,157.1722217616333,111.62594379799084,45.54627796364244,2.847231474929164,1.412970332273232,mp-9325,9325
3673,CdSnP2,3.73822178,-0.09526149916666693,5.1e-05,0,0,56.89837649332406,56.896620415503776,30.6629779470306,27.035194792882898,28.84908636995675,25.65961903337241,3.1653676967057436,22.494251336666668,4.7428104892212035,0.18620822385898936,mp-5213,5213
3674,Zn2P2O7,2.07143536,-2.3996034383333322,8.73e-05,0,0,124.1829628657647,109.50601947977698,46.770970099591096,-96.81949174201033,-25.024260821209616,157.1722217616333,111.62594379799084,45.54627796364244,2.847231474929164,1.412970332273232,mp-551741,551741
3675,MgAu,5.66318416,-0.6070851799999999,0.0008927,0,0,79.4947036380227,79.49470363802273,34.90650505810269,24.862968792669864,29.884736925386278,157.1722217616333,111.62594379799084,45.54627796364244,2.847231474929164,1.412970332273232,mp-437,437
3676,AgNO3,0.18466814,-0.6830964443333336,0.000327,0,0,36.78526839262771,33.07136295367976,9.1469253278502,8.324901271643524,8.735913299746862,10.72340767685757,7.302815263524235,3.4205924133333334,1.8494843641764949,0.6310826000612009,mp-552185,552185
3677,Mg2PdPt,5.48482756,-0.8087740025000003,8.9e-06,0,0,109.67464691167227,109.67464691167228,36.41000057767921,-28.284022887878372,4.062988844900421,157.1722217616333,111.62594379799084,45.54627796364244,2.847231474929164,1.412970332273232,mp-864975,864975
3678,LiAlGe,4.9768912,-0.29134166944444395,0.0009933,0,0,60.95615486406521,60.956154864065205,50.9592086951956,50.50848919087154,50.73384894303357,20.227319893333323,3.6627696933333347,16.56455019999999,4.069957026800159,0.5943800000000006,mp-5920,5920
3679,Mn2BiO5,4.23014289,-1.8853860322952594,7.00140445,8,2,135.24971311795562,119.87953242129436,64.79792641962302,61.459152574381015,63.12853949700202,157.1722217616333,111.62594379799084,45.54627796364244,2.847231474929164,1.412970332273232,mp-504697,504697
3680,TiAlCo2,7.10381391,-0.6249417558333334,0.9994969,2,1,177.6970248490211,177.6970248490211,93.94062485047503,86.10551452306065,90.02306968676784,157.1722217616333,111.62594379799084,45.54627796364244,2.847231474929164,1.412970332273232,mp-5407,5407
3681,Zr2SnC,6.97129634,-0.7835163574999999,0.00134695,0,0,127.69269476031137,126.985602454982,80.40895115053553,79.30573639382307,79.85734377217929,157.1722217616333,111.62594379799084,45.54627796364244,2.847231474929164,1.412970332273232,mp-4613,4613
3682,Li6PS5Br,0.35647322,-1.3066654151121793,9e-06,0,0,28.088915128330054,28.08891512833005,2.1956622836244564,-6.4821043063464785,-2.1432210113610113,4.96454303666666,1.2879278166666666,3.6766152199999937,1.9174501870974363,0.11358000000000007,mp-985591,985591
3683,SrWO4,0.60484617,-2.746216890277777,9.435e-05,0,0,63.94841002017435,63.03866207716614,30.296502932243218,27.793715789613717,29.045109360928468,9.739112092061847,6.2362533528642174,3.502858739197629,1.8715925676272678,1.412970332273232,mp-19163,19163
3684,MgCd2,3.17422158,-0.0452762283333333,0.000103,0,0,43.195605588206604,42.960389171844355,16.697274521045557,16.648139218576876,16.672706869811215,157.1722217616333,111.62594379799084,45.54627796364244,2.847231474929164,1.412970332273232,mp-972954,972954
3685,Sb2Te,6.4204866,-0.20410326555555575,5.3366666666666665e-05,0,0,34.906890775834896,29.766532848561535,24.891129317310455,17.27057964595607,21.08085448163326,157.1722217616333,111.62594379799084,45.54627796364244,2.847231474929164,1.412970332273232,mp-6997,6997
3686,MgGaNi2,6.39070758,-0.33597937437500036,0.0021197,0,0,123.84750755378985,123.84750755378985,52.71599535341487,17.97072569561126,35.343360524513066,157.1722217616333,111.62594379799084,45.54627796364244,2.847231474929164,1.412970332273232,mp-865092,865092
3687,Fe3SnC,8.23946547,0.06882885100000066,0.0624058,0,0,139.99001752603505,139.99001752603505,63.98940762383989,53.18256453527516,58.58598607955753,157.1722217616333,111.62594379799084,45.54627796364244,2.847231474929164,1.412970332273232,mp-21850,21850
3688,V3Si,6.49337506,0.6728398875000012,0.0059429,0,0,132.28438097201285,132.28438097201285,13.270717720833295,-133.95830365709625,-60.34379296813148,157.1722217616333,111.62594379799084,45.54627796364244,2.847231474929164,1.412970332273232,mp-571211,571211
3689,CuS,5.43247884,-0.44523708822916674,0.006800333333333333,0,0,76.01981175496185,71.7727738288899,27.306691641278757,19.90251771467369,23.604604677976223,157.1722217616333,111.62594379799084,45.54627796364244,2.847231474929164,1.412970332273232,mp-555599,555599
3690,Li2CuSn,6.38572698,-0.3297365304166666,0.0008823,0,0,51.71140108555025,51.71140092362838,36.366094564236896,23.273532432474653,29.819813498355774,157.1722217616333,111.62594379799084,45.54627796364244,2.847231474929164,1.412970332273232,mp-30591,30591
3691,Pb3O4,4.07394565,-1.4469811542857138,4.7675e-05,0,0,40.91065933570522,38.471959930291504,17.818448119603566,4.788419841956459,11.303433980780014,157.1722217616333,111.62594379799084,45.54627796364244,2.847231474929164,1.412970332273232,mp-22633,22633
3692,Be2Fe,4.81509455,-0.2775914083333338,1.816126075,4,1,158.3630460978593,158.35227105311787,146.27722601408598,145.8159886076371,146.04660731086153,157.1722217616333,111.62594379799084,45.54627796364244,2.847231474929164,1.412970332273232,mp-2225,2225
3693,Ga3Fe,3.98132106,-0.23825033374999993,3.475e-06,0,0,102.95427182467678,101.60844930647615,68.0869507586021,63.90103587411912,65.99399331636062,157.1722217616333,111.62594379799084,45.54627796364244,2.847231474929164,1.412970332273232,mp-636368,636368
3694,V2P,8.57956713,-0.7870825419444442,0.000398375,0,0,207.77369056787708,207.0525314408894,104.96836616883122,99.25394970874706,102.11115793878915,157.1722217616333,111.62594379799084,45.54627796364244,2.847231474929164,1.412970332273232,mp-20541,20541
3695,Y2B3C2,5.25910663,-0.5043695815476192,0.0006708,0,0,152.89758957973123,145.9257874868659,99.8375864113055,30.512880715908825,65.17523356360716,157.1722217616333,111.62594379799084,45.54627796364244,2.847231474929164,1.412970332273232,mp-29896,29896
3696,Cs2FeO4,0.63276057,-1.4427154208374386,2.000231775,4,1,20.539015148742603,20.374317042601433,9.636509623164965,9.545248626362186,9.590879124763575,157.1722217616333,111.62594379799084,45.54627796364244,2.847231474929164,1.412970332273232,mp-17443,17443
3697,Ca2CuO3,4.29986781,-2.5281315691666664,0.0005351,0,0,117.95934872282757,108.92424955073736,66.79211974946193,55.84482251169144,61.31847113057668,157.1722217616333,111.62594379799084,45.54627796364244,2.847231474929164,1.412970332273232,mp-5869,5869
3698,Li3ScN2,1.79396778,-1.0504224652083327,0.000238575,0,0,92.73920701803857,92.73920701803857,64.73112401384499,57.84328664761976,61.28720533073238,12.08677068,6.406676890000001,5.68009379,2.3832947341862694,1.412970332273232,mp-542435,542435
3699,KCuSe,2.87036169,-0.837525958447916,0.00092165,0,0,37.650145730654486,30.573498703833053,23.21394080902363,19.959399494091617,21.586670151557623,52.02918570666373,6.036922619997067,45.99226308666667,6.781759586321729,1.412970332273232,mp-7435,7435
3700,Cd(InTe2)2,3.29019904,-0.6168214585714286,0.0003203,0,0,21.22108946194961,21.00564163661896,13.022582410162416,11.026234816333638,12.024408613248028,12.901547429999999,3.3841101399999993,9.517437289999998,3.085034406615265,0.13194053831177133,mp-21374,21374
3701,CePb3,7.88309966,-0.3540138962499997,0.5854974,1,1,49.509655160792605,49.50965516079259,19.837732184306358,15.718679727690395,17.778205955998377,157.1722217616333,111.62594379799084,45.54627796364244,2.847231474929164,1.412970332273232,mp-20225,20225
3702,GaCuO2,4.14111665,-1.6750011693749993,0.0014066,0,0,158.44172564744875,144.0802131698083,68.51447918858581,48.9429852901131,58.728732239349455,10.501288586669434,4.660911713336098,5.840376873333334,2.4166871691084335,1.412970332273232,mp-4280,4280
3703,Li2Mg,1.067537,-0.026059495555555756,0.0028544,0,0,21.037530640045752,21.013131045984885,12.637454119571945,-5.11554595104628,3.7609540842628326,157.1722217616333,111.62594379799084,45.54627796364244,2.847231474929164,1.412970332273232,mp-976982,976982
3704,Li2CO3,-0.1416317,-2.2484518902777775,0.0005808,0,0,63.100882792787225,46.54057422798001,32.01048882847304,21.261785077627113,26.636136953050077,5.638536849999839,3.2687263433331712,2.3698105066666675,1.5394188860302667,1.412970332273232,mp-3054,3054
3705,CaTiO3,2.13386554,-3.5277344686666665,6.5e-07,0,0,137.68879529681126,132.8112695966112,63.85167158031533,54.21000727791119,59.03083942911326,157.1722217616333,111.62594379799084,45.54627796364244,2.847231474929164,1.412970332273232,mp-754701,754701
3706,SiC,8.05933012,-0.2036110399999993,0.0014896,0,0,211.38001705274064,211.38001705274067,195.69557145756352,178.16400210150633,186.92978677953494,10.350063106666667,3.354650196666665,6.99541291,2.6448842904747267,0.18938999999999995,mp-8062,8062
3707,ScSnPt,7.69046549,-1.001830913888889,9.834999999999999e-05,0,0,120.38759244506407,116.83852729465877,57.43780585597745,55.0120545488203,56.22493020239888,157.1722217616333,111.62594379799084,45.54627796364244,2.847231474929164,1.412970332273232,mp-18198,18198
3708,NbInS2,6.34082127,-1.100629271562501,0.0044463,0,0,64.01131342298703,52.37684105282861,31.518417067660547,21.52143590140686,26.519926484533705,157.1722217616333,111.62594379799084,45.54627796364244,2.847231474929164,1.412970332273232,mp-20621,20621
3709,Ti3SiC2,7.80301839,-0.8126256983333349,1.42e-05,0,0,184.06876908690185,184.06852283428816,138.92332993749793,138.28625047623356,138.60479020686574,157.1722217616333,111.62594379799084,45.54627796364244,2.847231474929164,1.412970332273232,mp-5659,5659
3710,MnP4,8.44617615,-0.36116065725287355,0.000278,0,0,139.43935816885238,137.237430258508,118.02275043438318,109.07292568109294,113.54783805773806,25.012221436666675,5.539854293333335,19.47236714333334,4.4127505190451615,1.412970332273232,mp-487,487
3711,ScOF,1.27128888,-4.078827054166667,0.0002316,0,0,106.46520385871469,101.07411875394239,48.18570375098927,41.618121248594214,44.90191249979174,157.1722217616333,111.62594379799084,45.54627796364244,2.847231474929164,1.412970332273232,mp-4662,4662