,formula_pretty,efermi,formation_energy_per_atom,total_magnetization_normalized_formula_units,num_magnetic_sites,num_unique_magnetic_sites,k_voigt,k_reuss,g_voigt,g_reuss,g_vrh,e_total,e_ionic,e_electronic,n,e_ij_max,material_id,b
3866,RbBF4,-3.77526896,-3.309778116111111,0.0,0,0,17.10802897866759,16.957439013931324,7.202137349004937,6.322977019958477,6.762557184481707,5.692459846666666,3.8739567666666663,1.81850308,1.3485188467351874,1.412970332273232,mp-3032,3032
3867,Al2O3,4.98427393,-3.3478086462000003,0.00255302,0,0,168.285653329595,163.60827752844344,87.20757886683488,61.662009898898724,74.4347943828668,8.8068489,5.742773326666666,3.064075573333333,1.7504501059251398,0.6317853558928668,mp-752826,752826
3868,Ni3Sn,9.52819537,-0.18520410999999903,0.0031994,0,0,164.45115187392906,164.06858849093047,67.20287136154295,63.94894497307473,65.57590816730884,157.1722217616333,111.62594379799084,45.54627796364244,2.847231474929164,1.412970332273232,mp-20112,20112
3869,AgHgPd2,3.27415545,-0.14353725041666632,5.63e-05,0,0,118.05159039611857,118.05159039611871,41.40783281000885,-9.558887783006544,15.924472513501152,157.1722217616333,111.62594379799084,45.54627796364244,2.847231474929164,1.412970332273232,mp-861501,861501
3870,PdSe2,2.65838362,-0.5964911090624992,9.08e-05,0,0,36.541190567955915,8.510806647788016,24.417768993873768,4.565889997083616,14.491829495478692,14.405868936666666,0.9879629899999999,13.417905946666664,3.663045992977247,1.412970332273232,mp-2418,2418
3871,Ca(ZnSb)2,4.49677127,-0.523427616,0.0001233,0,0,44.08577014488981,43.41502089026934,21.532179908925084,17.381065814082127,19.456622861503604,157.1722217616333,111.62594379799084,45.54627796364244,2.847231474929164,1.412970332273232,mp-7429,7429
3872,ZnN,3.49950682,0.5147460624999995,0.0218321,0,0,164.21013950483803,164.21013950483803,56.50378644873282,56.30431746704593,56.40405195788937,157.1722217616333,111.62594379799084,45.54627796364244,2.847231474929164,1.412970332273232,mp-999473,999473
3873,Al2HgTe4,3.22883458,-0.6229170592857142,0.0002703,0,0,26.070261233802846,25.928736357757433,16.843346916627667,14.725665058595872,15.78450598761177,13.5947930866496,4.185571129982929,9.40922195666667,3.0674455099751436,0.11568955672336327,mp-7910,7910
3874,TeO2,4.25115919,-1.48360912,0.0001261,0,0,29.700108971059326,29.370324677457273,31.2490770954393,24.685145695113174,27.967111395276238,26.98987679,20.717483276666666,6.272393513333333,2.5044746980820816,0.5071699999999999,mp-557,557
3875,KAuCl4,-1.02682194,-1.3219672746666664,8.725e-06,0,0,7.393307567708839,6.756826222325519,3.414837275444619,2.944824619987373,3.1798309477159963,157.1722217616333,111.62594379799084,45.54627796364244,2.847231474929164,1.412970332273232,mp-27181,27181
3876,Mg9Si5,4.36123779,-0.08313426107142823,0.0005099,0,0,58.67608333790338,58.61274143866582,40.20607762977598,36.14262777887548,38.17435270432573,157.1722217616333,111.62594379799084,45.54627796364244,2.847231474929164,1.412970332273232,mp-542854,542854
3877,YTiGe,4.98106209,-0.7098813450000007,0.2586118,2,1,87.35203756576112,87.18400921144946,52.16580340412455,46.83101959899541,49.498411501559985,157.1722217616333,111.62594379799084,45.54627796364244,2.847231474929164,1.412970332273232,mp-5042,5042
3878,VAg(PSe3)2,3.00578379,-0.543102628739583,2.0019725,1,1,22.484189978306432,2.696918332435729,9.903643191238286,-1.206397159081103,4.348623016078592,157.1722217616333,111.62594379799084,45.54627796364244,2.847231474929164,1.412970332273232,mp-6543,6543
3879,YCu2Bi2(SeO2)2,4.90668593,-1.7373310192140154,0.0316172,0,0,66.3995631568713,56.07222063808545,36.25522174856187,30.24540156872062,33.250311658641245,157.1722217616333,111.62594379799084,45.54627796364244,2.847231474929164,1.412970332273232,mp-550306,550306
3880,FeBPbO4,3.21929671,-2.0858283777380953,5.000911575,4,1,72.05324297767787,50.011809961668135,44.18131179040537,20.13649882037965,32.15890530539251,157.1722217616333,111.62594379799084,45.54627796364244,2.847231474929164,1.412970332273232,mp-20028,20028
3881,ScRh3,6.41985159,-0.60684138375,6.76e-05,0,0,184.31890329700263,184.3189032970026,91.47558540622217,76.82086207832613,84.14822374227415,157.1722217616333,111.62594379799084,45.54627796364244,2.847231474929164,1.412970332273232,mp-635,635
3882,SrAsPd,3.99043986,-0.9657052472222224,0.0005843,0,0,66.84387218235432,58.42896070538912,27.80958416704355,26.29511271908772,27.052348443065632,157.1722217616333,111.62594379799084,45.54627796364244,2.847231474929164,1.412970332273232,mp-9743,9743
3883,ZrNi3,7.05418019,-0.45845552374999876,0.0002677,0,0,170.6284066380287,170.3232440557264,71.00886165268085,69.18897313723538,70.09891739495811,157.1722217616333,111.62594379799084,45.54627796364244,2.847231474929164,1.412970332273232,mp-485,485
3884,Cu2GeTe3,4.82770007,-0.30242218083333344,0.00052765,0,0,48.02054932261018,48.00791465594339,23.140258332881313,20.40931496120721,21.77478664704426,157.1722217616333,111.62594379799084,45.54627796364244,2.847231474929164,1.412970332273232,mp-674953,674953
3885,BaC,2.20239951,1.392362695,1.9998289,1,1,37.823784979715256,37.823784979715256,15.06935306797939,8.489987579075285,11.779670323527338,157.1722217616333,111.62594379799084,45.54627796364244,2.847231474929164,1.412970332273232,mp-997616,997616
3886,CeAlO3,10.48681647,-3.6155104749999993,1.0003052,2,1,189.3334500326356,188.88106939094868,94.558135986543,92.06864324175729,93.31338961415014,157.1722217616333,111.62594379799084,45.54627796364244,2.847231474929164,1.412970332273232,mp-4096,4096
3887,Li2InPt,4.82473178,-0.5682559266666667,0.0006917,0,0,71.88051368069675,71.88051368069677,26.96420275138534,7.525618749284222,17.244910750334782,157.1722217616333,111.62594379799084,45.54627796364244,2.847231474929164,1.412970332273232,mp-21026,21026
3888,Li2CoCl4,1.77810352,-1.6240206916666666,3.0005063,1,1,25.488904625794873,24.428852677452582,15.123384285646269,14.09207122591467,14.60772775578047,157.1722217616333,111.62594379799084,45.54627796364244,2.847231474929164,1.412970332273232,mp-22980,22980
3889,YPt2,6.27521044,-1.084260490555555,0.0002443,0,0,162.39707836030382,162.39707836030382,75.18792746114532,71.16600163103006,73.17696454608769,157.1722217616333,111.62594379799084,45.54627796364244,2.847231474929164,1.412970332273232,mp-2674,2674
3890,Sr2VO4,3.73455703,-2.9614733990476196,0.9998227,1,1,131.51766496860694,129.8103769415842,75.09581277831127,69.55421823920987,72.32501550876057,157.1722217616333,111.62594379799084,45.54627796364244,2.847231474929164,1.412970332273232,mp-18972,18972
3891,ZrGeO4,3.01563658,-2.9644210391666674,0.0001564,0,0,204.57448236664817,198.72806353595394,87.32242890165253,82.0687121538229,84.69557052773771,18.76839467048443,13.769953012567209,4.998441657917222,2.2357194944619554,1.412970332273232,mp-8042,8042
3892,Mn2CrO4,3.63326992,-2.178301561194581,12.000392075,12,9,154.38198187904112,154.3033488750284,55.51366079738894,44.54457886959467,50.029119833491805,157.1722217616333,111.62594379799084,45.54627796364244,2.847231474929164,1.412970332273232,mp-765581,765581
3893,CrCuSe2,4.76402723,-0.4082164686718741,2.9986011,2,2,72.22386156955771,65.4294799432124,13.485091416601518,-47.639318662866316,-17.077113623132398,157.1722217616333,111.62594379799084,45.54627796364244,2.847231474929164,1.412970332273232,mp-7861,7861
3894,YHg,3.85397117,-0.5162792708333335,0.0002501,0,0,65.05460326301794,65.05460326301794,28.21151569558302,24.86564335871412,26.53857952714857,157.1722217616333,111.62594379799084,45.54627796364244,2.847231474929164,1.412970332273232,mp-2399,2399
3895,Li7Si2,2.21276774,-0.1981300175925927,0.000456975,0,0,32.59880881642269,32.57695312999642,29.64189818362207,26.806778577062634,28.224338380342353,157.1722217616333,111.62594379799084,45.54627796364244,2.847231474929164,1.412970332273232,mp-27930,27930
3896,Mg3Ru2,5.53339517,-0.14328825950000024,0.011071175,0,0,107.49318046407394,107.49318046407394,52.64127233761636,49.651911361829576,51.14659184972297,157.1722217616333,111.62594379799084,45.54627796364244,2.847231474929164,1.412970332273232,mp-625,625
3897,Sr2SnO4,2.94036817,-2.786113509761905,1.01e-05,0,0,107.42768371262937,105.50013552863936,50.70602798905341,49.019697871278176,49.86286293016579,157.1722217616333,111.62594379799084,45.54627796364244,2.847231474929164,1.412970332273232,mp-4287,4287
3898,ScInPd2,6.76625221,-0.8333712687499997,5.43e-05,0,0,118.48202112097081,118.4820211209708,42.21519587625765,29.411394439154442,35.81329515770605,157.1722217616333,111.62594379799084,45.54627796364244,2.847231474929164,1.412970332273232,mp-31339,31339
3899,Li2HfO3,1.20927219,-3.1409555244444447,6.89e-05,0,0,98.84909045627472,91.80987400586108,64.69064064278626,41.663007310759404,53.17682397677284,157.1722217616333,111.62594379799084,45.54627796364244,2.847231474929164,1.412970332273232,mp-756597,756597
3900,GaFeCo2,5.65315769,-0.24105996687500042,4.9966913,3,2,191.11803769188805,191.1180376918881,93.92924685384425,68.34195600252808,81.13560142818616,157.1722217616333,111.62594379799084,45.54627796364244,2.847231474929164,1.412970332273232,mp-30551,30551
3901,BaCO3,0.68234594,-2.683620472,0.0001206,0,0,52.9491294735163,47.909201906619614,22.81322217997391,21.528650721535122,22.170936450754517,8.004854326666665,5.2440139399999985,2.760840386666666,1.6615776799977382,1.412970332273232,mp-5504,5504
3902,Tl(CoSe)2,5.22066731,-0.4127336696041667,1.9757935,2,1,49.169987362257324,44.66302892362021,22.126409552786527,18.904165641024317,20.515287596905424,157.1722217616333,111.62594379799084,45.54627796364244,2.847231474929164,1.412970332273232,mp-4475,4475
3903,VS2,0.24073844,-1.1826041937499998,0.5785685,2,1,19.48732371952498,1.6740601069129457,16.612472776265044,0.30099173928251954,8.456732257773782,157.1722217616333,111.62594379799084,45.54627796364244,2.847231474929164,1.412970332273232,mp-557523,557523
3904,Y2O3,1.57171387,-3.919427760666667,5.36e-05,0,0,141.7209725941048,133.6679486193266,63.11508757069302,61.28405558695073,62.199571578821875,157.1722217616333,111.62594379799084,45.54627796364244,2.847231474929164,1.412970332273232,mp-754759,754759
3905,TiCo2,6.13633849,-0.30237454944444525,0.0279513,0,0,167.79767075130798,167.797670751308,93.94607638859173,93.05980064470302,93.50293851664738,157.1722217616333,111.62594379799084,45.54627796364244,2.847231474929164,1.412970332273232,mp-695,695
3906,NaTiO2,6.06921771,-2.788169992471264,0.9743668,1,1,99.45948078418976,97.25755646368545,73.0881094578539,67.95401783620855,70.52106364703123,157.1722217616333,111.62594379799084,45.54627796364244,2.847231474929164,1.412970332273232,mp-7002,7002
3907,PbICl,3.40297665,-1.1946599108333331,0.0001367,0,0,8.357220328724555,5.578162649093547,4.6713240535484895,2.654476683892294,3.6629003687203916,157.1722217616333,111.62594379799084,45.54627796364244,2.847231474929164,1.412970332273232,mp-23053,23053
3908,K,0.42374303,0.009577237000000016,0.0003526,0,0,3.722272067430741,3.7222720674307435,1.4873591634155203,-0.6714786385586948,0.40794026242841275,157.1722217616333,111.62594379799084,45.54627796364244,2.847231474929164,1.412970332273232,mp-58,58
3909,Ca3Ti2O7,2.80850779,-3.511848975138888,0.0010623,0,0,132.54245263914032,127.08128841379995,67.22822179136504,64.08099826189114,65.65461002662809,61.460849153333335,56.15338773,5.307461423333332,2.3037928342916016,5.88125396680844,mp-4163,4163
3910,LiBr,-0.15079678,-1.8103985954166664,0.0004327,0,0,21.062752202960528,21.062752202960528,16.399586407828494,15.497695619042641,15.948641013435568,11.396526396686292,7.699812696686294,3.6967136999999983,1.9226839833940466,1.412970332273232,mp-23259,23259
3911,La2O3,6.1038297,-2.983468005,0.0009174,0,0,101.69311546478126,101.69311546478124,43.01360333453648,25.460844035088673,34.23722368481258,157.1722217616333,111.62594379799084,45.54627796364244,2.847231474929164,1.412970332273232,mp-33032,33032
3912,FeAgO2,2.87547709,-1.2217076847916672,0.0,4,1,135.95416494505685,126.67374920005491,55.12370040556379,27.80783230845452,41.46576635700915,13.444776236671908,6.239090223338576,7.205686013333334,2.6843408899268613,1.412970332273232,mp-19225,19225
3913,RbVBr3,2.68203999,-1.5485808050000003,2.99974685,2,1,14.006311970920981,13.791404415252037,5.684132192539124,-2.3217480318859707,1.6811920803265767,14.884903626850933,11.388539913517599,3.4963637133333343,1.8698566023450394,1.412970332273232,mp-570099,570099
3914,InCl,2.92592178,-1.118874425,0.0,0,0,11.274962115260347,9.155642674918267,6.301775228076257,3.7347507584700343,5.0182629932731455,61.98348071333333,56.043187089999996,5.940293623333333,2.4372717582028747,1.3884002348386433,mp-571636,571636
3915,Si3Ge,8.55869279,0.5807996312499997,5.03e-05,0,0,90.08680585354516,90.08680585354513,7.340389033260891,483.16080512028,245.25059707677042,157.1722217616333,111.62594379799084,45.54627796364244,2.847231474929164,1.412970332273232,mp-972751,972751
3916,SF4,-1.88378329,-1.5584269166249995,0.000211,0,0,3.627404848514394,3.4902140931824612,2.724423289081966,2.127771599801875,2.4260974444419205,157.1722217616333,111.62594379799084,45.54627796364244,2.847231474929164,1.412970332273232,mp-33107,33107
3917,MoBr3,1.02943285,-0.9782898593750007,1.9999386,4,1,5.921550569391947,-0.9973698339818436,4.687018330943053,0.9873979330971675,2.83720813202011,5.230233903333333,0.7222037166666667,4.508030186666666,2.1232122330720182,1.412970332273232,mp-23312,23312
3918,VOF,4.17609025,-2.845683450833333,2.0000063,4,1,152.513824933824,146.5291814365708,71.69125791814892,57.800421021148914,64.74583946964891,11.174771123333334,6.526918203333334,4.647852920000001,2.1558879655492307,0.114615,mp-754589,754589
3919,Zr3In,5.83130479,-0.2506585250000004,0.0002154,0,0,96.69946304937062,96.69946304937062,54.436051506036925,47.091508924709196,50.76378021537306,157.1722217616333,111.62594379799084,45.54627796364244,2.847231474929164,1.412970332273232,mp-20695,20695
3920,TiGePd,6.67753432,-0.7103129894444441,4.25e-06,0,0,150.9898078986754,149.51614613856165,70.79735390675111,66.52025481715901,68.65880436195506,157.1722217616333,111.62594379799084,45.54627796364244,2.847231474929164,1.412970332273232,mp-20268,20268
3921,WBr4O,-0.91530769,-1.064991349166667,7.57e-05,0,0,19.885947223605243,-0.3690724193047769,15.205949526469961,2.0251591902286274,8.615554358349295,157.1722217616333,111.62594379799084,45.54627796364244,2.847231474929164,1.412970332273232,mp-32536,32536
3922,LiV2O5,1.08373617,-2.4542407110416686,1.000494675,8,2,84.38951030213532,64.00091152732834,39.84199638599309,32.061857413173534,35.95192689958331,157.1722217616333,111.62594379799084,45.54627796364244,2.847231474929164,1.412970332273232,mp-777667,777667
3923,Fe11MoC4,6.30824331,0.19485200937500124,19.6142992,12,6,193.81576021025754,189.65125658348057,87.60682199751159,70.64164772264854,79.12423486008007,157.1722217616333,111.62594379799084,45.54627796364244,2.847231474929164,1.412970332273232,mp-995434,995434
3924,NaNbO3,1.55723738,-2.821961123310345,7.7525e-05,0,0,123.833439915898,121.57436748274472,91.07783123960625,80.55264924287954,85.81524024124289,157.1722217616333,111.62594379799084,45.54627796364244,2.847231474929164,1.412970332273232,mp-4748,4748
3925,DyBr3,-2.28979865,-2.253160935625,1e-07,0,0,6.876340164981242,0.44461561631538854,4.135408852876372,0.33374731295378407,2.2345780829150783,157.1722217616333,111.62594379799084,45.54627796364244,2.847231474929164,1.412970332273232,mp-864982,864982
3926,Al2ZnS4,4.2853273,-1.3011535553571432,0.00016335,0,0,84.06881208687409,84.0688120868741,49.04625390465251,40.5369579815646,44.79160594310855,11.486136013333313,5.116741389999992,6.369394623333321,2.5237659604910516,1.412970332273232,mp-4842,4842
3927,FeAs2,6.37760901,-0.2641239466666671,0.0007943,0,0,135.47715314656944,131.82576526008032,115.75717088738548,105.1977758588399,110.4774733731127,48.932064966666665,18.318534356666664,30.613530609999998,5.532949539802437,1.412970332273232,mp-2008,2008
3928,TlCl,1.38451516,-1.323994321666667,3.41e-05,0,0,20.29664587750866,20.296645877508656,7.273046132704615,5.4131487580628415,6.343097445383728,24.527522806673243,20.449198520006586,4.0783242866666525,2.0194861442125944,1.412970332273232,mp-569639,569639
3929,Al2RuPt,9.65657565,-0.9008386337500003,6.3e-06,0,0,200.90471716209402,200.90471716209396,98.5456151955088,96.36636268596035,97.45598894073458,157.1722217616333,111.62594379799084,45.54627796364244,2.847231474929164,1.412970332273232,mp-867125,867125
3930,Ti2AlN,7.40734594,-1.260449857916666,0.0126583,0,0,155.36519981904775,155.36224553568462,115.42478294643861,114.16285285884042,114.79381790263952,157.1722217616333,111.62594379799084,45.54627796364244,2.847231474929164,1.412970332273232,mp-4978,4978
3931,Li15Si4,1.41511986,-0.21964146763157918,0.00189165,0,0,29.952936487788307,29.952936487787447,23.28366441074106,19.645174011615747,21.464419211178402,157.1722217616333,111.62594379799084,45.54627796364244,2.847231474929164,1.412970332273232,mp-569849,569849
3932,K2ZnO2,0.61507319,-1.5858322861999998,3.955e-05,0,0,43.00746338479913,42.579167936214425,13.868923835526212,8.603530482659226,11.236227159092719,16.3818353999048,13.066028893238133,3.3158065066666667,1.8209356129931302,1.412970332273232,mp-8187,8187
3933,Na3(CuS)4,3.68591196,-0.7984362638322883,0.00120995,0,0,41.503490307994866,39.05906750344571,19.75560308286837,17.54038547826234,18.647994280565356,157.1722217616333,111.62594379799084,45.54627796364244,2.847231474929164,1.412970332273232,mp-27321,27321
3934,VFeO4,1.40398149,-2.0060553575000006,5.0,4,2,148.0003609217368,113.5488433135902,76.88369874046263,66.00583290570147,71.44476582308205,157.1722217616333,111.62594379799084,45.54627796364244,2.847231474929164,1.412970332273232,mp-850978,850978
3935,NaMgAs,2.33059048,-0.6363564071839084,0.000192,0,0,33.39848064844642,33.392612268666674,20.8359509469142,18.968645068450893,19.902298007682546,18.558190333333332,10.253044873333332,8.305145459999999,2.8818649274384804,1.412970332273232,mp-5962,5962